 Entering Gaussian System, Link 0=g16
 Input=/home/ajs99778/chem/test_jobs/gaussian/ccsd_t/test.com
 Output=/home/ajs99778/chem/test_jobs/gaussian/ccsd_t/test.log
 Initial command:
 /apps/eb/gaussian/16-AVX2/g16/l1.exe "/scratch/ajs99778/3508439/Gau-16507.inp" -scrdir="/scratch/ajs99778/3508439/"
 Default is to use a total of   4 processors:
                                4 via shared-memory
                                1 via Linda
 Entering Link 1 = /apps/eb/gaussian/16-AVX2/g16/l1.exe PID=     16508.
  
 Copyright (c) 1988-2019, Gaussian, Inc.  All Rights Reserved.
  
 This is part of the Gaussian(R) 16 program.  It is based on
 the Gaussian(R) 09 system (copyright 2009, Gaussian, Inc.),
 the Gaussian(R) 03 system (copyright 2003, Gaussian, Inc.),
 the Gaussian(R) 98 system (copyright 1998, Gaussian, Inc.),
 the Gaussian(R) 94 system (copyright 1995, Gaussian, Inc.),
 the Gaussian 92(TM) system (copyright 1992, Gaussian, Inc.),
 the Gaussian 90(TM) system (copyright 1990, Gaussian, Inc.),
 the Gaussian 88(TM) system (copyright 1988, Gaussian, Inc.),
 the Gaussian 86(TM) system (copyright 1986, Carnegie Mellon
 University), and the Gaussian 82(TM) system (copyright 1983,
 Carnegie Mellon University). Gaussian is a federally registered
 trademark of Gaussian, Inc.
  
 This software contains proprietary and confidential information,
 including trade secrets, belonging to Gaussian, Inc.
  
 This software is provided under written license and may be
 used, copied, transmitted, or stored only in accord with that
 written license.
  
 The following legend is applicable only to US Government
 contracts under FAR:
  
                    RESTRICTED RIGHTS LEGEND
  
 Use, reproduction and disclosure by the US Government is
 subject to restrictions as set forth in subparagraphs (a)
 and (c) of the Commercial Computer Software - Restricted
 Rights clause in FAR 52.227-19.
  
 Gaussian, Inc.
 340 Quinnipiac St., Bldg. 40, Wallingford CT 06492
  
  
 ---------------------------------------------------------------
 Warning -- This program may not be used in any manner that
 competes with the business of Gaussian, Inc. or will provide
 assistance to any competitor of Gaussian, Inc.  The licensee
 of this program is prohibited from giving any competitor of
 Gaussian, Inc. access to this program.  By using this program,
 the user acknowledges that Gaussian, Inc. is engaged in the
 business of creating and licensing software in the field of
 computational chemistry and represents and warrants to the
 licensee that it is not a competitor of Gaussian, Inc. and that
 it will not use this program in any manner prohibited above.
 ---------------------------------------------------------------
  

 Cite this work as:
 Gaussian 16, Revision C.01,
 M. J. Frisch, G. W. Trucks, H. B. Schlegel, G. E. Scuseria, 
 M. A. Robb, J. R. Cheeseman, G. Scalmani, V. Barone, 
 G. A. Petersson, H. Nakatsuji, X. Li, M. Caricato, A. V. Marenich, 
 J. Bloino, B. G. Janesko, R. Gomperts, B. Mennucci, H. P. Hratchian, 
 J. V. Ortiz, A. F. Izmaylov, J. L. Sonnenberg, D. Williams-Young, 
 F. Ding, F. Lipparini, F. Egidi, J. Goings, B. Peng, A. Petrone, 
 T. Henderson, D. Ranasinghe, V. G. Zakrzewski, J. Gao, N. Rega, 
 G. Zheng, W. Liang, M. Hada, M. Ehara, K. Toyota, R. Fukuda, 
 J. Hasegawa, M. Ishida, T. Nakajima, Y. Honda, O. Kitao, H. Nakai, 
 T. Vreven, K. Throssell, J. A. Montgomery, Jr., J. E. Peralta, 
 F. Ogliaro, M. J. Bearpark, J. J. Heyd, E. N. Brothers, K. N. Kudin, 
 V. N. Staroverov, T. A. Keith, R. Kobayashi, J. Normand, 
 K. Raghavachari, A. P. Rendell, J. C. Burant, S. S. Iyengar, 
 J. Tomasi, M. Cossi, J. M. Millam, M. Klene, C. Adamo, R. Cammi, 
 J. W. Ochterski, R. L. Martin, K. Morokuma, O. Farkas, 
 J. B. Foresman, and D. J. Fox, Gaussian, Inc., Wallingford CT, 2019.
 
 ******************************************
 Gaussian 16:  ES64L-G16RevC.01  3-Jul-2019
                25-Jun-2021 
 ******************************************
 ------------------
 #n CCSD(T)/cc-pVDZ
 ------------------
 1/38=1,172=1/1;
 2/12=2,17=6,18=5,40=1/2;
 3/5=16,11=9,25=1,30=1/1,2,3;
 4//1;
 5/5=2,38=5/2;
 8/6=4,9=120000,10=1/1,4;
 9/5=7,14=2/13;
 6/7=2,8=2,9=2,10=2/1;
 99/5=1,9=1/99;
 ----
 test
 ----
 Symbolic Z-matrix:
 Charge =  0 Multiplicity = 1
 O                     0.        0.        0.11779 
 H                    -0.75542   0.       -0.47118 
 H                     0.75542   0.       -0.47118 
 
                          Input orientation:                          
 ---------------------------------------------------------------------
 Center     Atomic      Atomic             Coordinates (Angstroms)
 Number     Number       Type             X           Y           Z
 ---------------------------------------------------------------------
      1          8           0        0.000000    0.000000    0.117790
      2          1           0       -0.755420    0.000000   -0.471180
      3          1           0        0.755420    0.000000   -0.471180
 ---------------------------------------------------------------------
                    Distance matrix (angstroms):
                    1          2          3
     1  O    0.000000
     2  H    0.957886   0.000000
     3  H    0.957886   1.510840   0.000000
 Stoichiometry    H2O
 Framework group  C2V[C2(O),SGV(H2)]
 Deg. of freedom     2
 Full point group                 C2V     NOp   4
 Largest Abelian subgroup         C2V     NOp   4
 Largest concise Abelian subgroup C2      NOp   2
                         Standard orientation:                         
 ---------------------------------------------------------------------
 Center     Atomic      Atomic             Coordinates (Angstroms)
 Number     Number       Type             X           Y           Z
 ---------------------------------------------------------------------
      1          8           0        0.000000    0.000000    0.117794
      2          1           0       -0.000000    0.755420   -0.471176
      3          1           0       -0.000000   -0.755420   -0.471176
 ---------------------------------------------------------------------
 Rotational constants (GHZ):         813.8813866         439.3646413         285.3316073
 Standard basis: CC-pVDZ (5D, 7F)
 There are    12 symmetry adapted cartesian basis functions of A1  symmetry.
 There are     2 symmetry adapted cartesian basis functions of A2  symmetry.
 There are     4 symmetry adapted cartesian basis functions of B1  symmetry.
 There are     7 symmetry adapted cartesian basis functions of B2  symmetry.
 There are    11 symmetry adapted basis functions of A1  symmetry.
 There are     2 symmetry adapted basis functions of A2  symmetry.
 There are     4 symmetry adapted basis functions of B1  symmetry.
 There are     7 symmetry adapted basis functions of B2  symmetry.
    24 basis functions,    47 primitive gaussians,    25 cartesian basis functions
     5 alpha electrons        5 beta electrons
       nuclear repulsion energy         9.1893408812 Hartrees.
 NAtoms=    3 NActive=    3 NUniq=    2 SFac= 2.25D+00 NAtFMM=   60 NAOKFM=F Big=F
 Integral buffers will be    131072 words long.
 Raffenetti 1 integral format.
 Two-electron integral symmetry is turned on.
 One-electron integrals computed using PRISM.
 NBasis=    24 RedAO= T EigKep=  3.45D-02  NBF=    11     2     4     7
 NBsUse=    24 1.00D-06 EigRej= -1.00D+00 NBFU=    11     2     4     7
 ExpMin= 1.22D-01 ExpMax= 1.17D+04 ExpMxC= 4.01D+02 IAcc=3 IRadAn=         5 AccDes= 0.00D+00
 Harris functional with IExCor=  205 and IRadAn=       5 diagonalized for initial guess.
 HarFok:  IExCor=  205 AccDes= 0.00D+00 IRadAn=         5 IDoV= 1 UseB2=F ITyADJ=14
 ICtDFT=  3500011 ScaDFX=  1.000000  1.000000  1.000000  1.000000
 FoFCou: FMM=F IPFlag=           0 FMFlag=      100000 FMFlg1=           0
         NFxFlg=           0 DoJE=T BraDBF=F KetDBF=T FulRan=T
         wScrn=  0.000000 ICntrl=       500 IOpCl=  0 I1Cent=   200000004 NGrid=           0
         NMat0=    1 NMatS0=      1 NMatT0=    0 NMatD0=    1 NMtDS0=    0 NMtDT0=    0
 Petite list used in FoFCou.
 Initial guess orbital symmetries:
       Occupied  (A1) (A1) (B2) (A1) (B1)
       Virtual   (A1) (B2) (B2) (A1) (B1) (A1) (B2) (A1) (A2) (B1)
                 (A1) (B2) (B2) (A1) (B1) (A2) (A1) (A1) (B2)
 The electronic state of the initial guess is 1-A1.
 Keep R1 ints in memory in symmetry-blocked form, NReq=878746.
 Requested convergence on RMS density matrix=1.00D-08 within 128 cycles.
 Requested convergence on MAX density matrix=1.00D-06.
 Requested convergence on             energy=1.00D-06.
 No special actions if energy rises.
 SCF Done:  E(RHF) =  -76.0267686715     A.U. after   10 cycles
            NFock= 10  Conv=0.35D-08     -V/T= 2.0005
 ExpMin= 1.22D-01 ExpMax= 1.17D+04 ExpMxC= 4.01D+02 IAcc=3 IRadAn=         5 AccDes= 0.00D+00
 HarFok:  IExCor=  205 AccDes= 0.00D+00 IRadAn=         5 IDoV=-2 UseB2=F ITyADJ=14
 ICtDFT= 12500011 ScaDFX=  1.000000  1.000000  1.000000  1.000000
 Range of M.O.s used for correlation:     2    24
 NBasis=    24 NAE=     5 NBE=     5 NFC=     1 NFV=     0
 NROrb=     23 NOA=     4 NOB=     4 NVA=    19 NVB=    19
 Semi-Direct transformation.
 ModeAB=           4 MOrb=             4 LenV=     939337619
 LASXX=         5298 LTotXX=        5298 LenRXX=       11480
 LTotAB=        6182 MaxLAS=       23184 LenRXY=           0
 NonZer=       16778 LenScr=      785920 LnRSAI=       23184
 LnScr1=      785920 LExtra=           0 Total=      1606504
 MaxDsk=          -1 SrtSym=           T ITran=            4
 JobTyp=0 Pass  1:  I=   1 to   4.
 (rs|ai) integrals will be sorted in core.
 Spin components of T(2) and E(2):
     alpha-alpha T2 =       0.6270670361D-02 E2=     -0.2536432163D-01
     alpha-beta  T2 =       0.3751286747D-01 E2=     -0.1509819367D+00
     beta-beta   T2 =       0.6270670361D-02 E2=     -0.2536432163D-01
 ANorm=    0.1024721527D+01
 E2 =    -0.2017105799D+00 EUMP2 =    -0.76228479251471D+02
 Keep R2 and R3 ints in memory in symmetry-blocked form, NReq=881324.
 CIDS: In Core Option IDoMem=           1.
 Iterations=  50 Convergence= 0.100D-06
 Produce multiple copies of IABC intergrals
 Iteration Nr.   1
 **********************
 DD1Dir will call FoFMem   1 times, MxPair=        20
 NAB=    10 NAA=     0 NBB=     0.
 MP4(R+Q)=  0.18026646D-02
 E3=       -0.69920236D-02        EUMP3=      -0.76235471275D+02
 E4(DQ)=   -0.15798138D-02        UMP4(DQ)=   -0.76237051089D+02
 E4(SDQ)=  -0.22596126D-02        UMP4(SDQ)=  -0.76237730888D+02
 DE(Corr)= -0.20689243     E(Corr)=     -76.233661101    
 NORM(A)=   0.10262291D+01
 Iteration Nr.   2
 **********************
 DD1Dir will call FoFMem   1 times, MxPair=        20
 NAB=    10 NAA=     0 NBB=     0.
 DE(Corr)= -0.21018001     E(CORR)=     -76.236948682     Delta=-3.29D-03
 NORM(A)=   0.10278176D+01
 Iteration Nr.   3
 **********************
 DD1Dir will call FoFMem   1 times, MxPair=        20
 NAB=    10 NAA=     0 NBB=     0.
 DE(Corr)= -0.21105701     E(CORR)=     -76.237825680     Delta=-8.77D-04
 NORM(A)=   0.10280429D+01
 Iteration Nr.   4
 **********************
 DD1Dir will call FoFMem   1 times, MxPair=        20
 NAB=    10 NAA=     0 NBB=     0.
 DE(Corr)= -0.21126108     E(CORR)=     -76.238029756     Delta=-2.04D-04
 NORM(A)=   0.10280771D+01
 Iteration Nr.   5
 **********************
 DD1Dir will call FoFMem   1 times, MxPair=        20
 NAB=    10 NAA=     0 NBB=     0.
 DE(Corr)= -0.21127243     E(CORR)=     -76.238041103     Delta=-1.13D-05
 NORM(A)=   0.10280811D+01
 Iteration Nr.   6
 **********************
 DD1Dir will call FoFMem   1 times, MxPair=        20
 NAB=    10 NAA=     0 NBB=     0.
 DE(Corr)= -0.21127328     E(CORR)=     -76.238041956     Delta=-8.52D-07
 NORM(A)=   0.10280818D+01
 Iteration Nr.   7
 **********************
 DD1Dir will call FoFMem   1 times, MxPair=        20
 NAB=    10 NAA=     0 NBB=     0.
 DE(Corr)= -0.21127314     E(CORR)=     -76.238041813     Delta= 1.42D-07
 NORM(A)=   0.10280824D+01
 Iteration Nr.   8
 **********************
 DD1Dir will call FoFMem   1 times, MxPair=        20
 NAB=    10 NAA=     0 NBB=     0.
 DE(Corr)= -0.21127319     E(CORR)=     -76.238041859     Delta=-4.58D-08
 NORM(A)=   0.10280824D+01
 Wavefunction amplitudes converged. E(Corr)=     -76.238041859    
 Largest amplitude= 5.14D-02
 Time for triples=        0.20 seconds.
 T4(CCSD)= -0.31259545D-02
 T5(CCSD)=  0.85249214D-04
 CCSD(T)= -0.76241082564D+02
 Discarding MO integrals.

 **********************************************************************

            Population analysis using the SCF Density.

 **********************************************************************

 Orbital symmetries:
       Occupied  (A1) (A1) (B2) (A1) (B1)
       Virtual   (A1) (B2) (B2) (A1) (A1) (B1) (B2) (A1) (A2) (B1)
                 (A1) (B2) (B2) (A1) (B1) (A2) (A1) (A1) (B2)
 The electronic state is 1-A1.
 Alpha  occ. eigenvalues --  -20.55076  -1.33668  -0.69820  -0.56727  -0.49325
 Alpha virt. eigenvalues --    0.18538   0.25621   0.78750   0.85554   1.16387
 Alpha virt. eigenvalues --    1.20028   1.25375   1.44105   1.47741   1.67233
 Alpha virt. eigenvalues --    1.86656   1.93655   2.45032   2.48956   3.28720
 Alpha virt. eigenvalues --    3.33678   3.51146   3.86209   4.14909
          Condensed to atoms (all electrons):
               1          2          3
     1  O    7.574291   0.365535   0.365535
     2  H    0.365535   0.515227  -0.033442
     3  H    0.365535  -0.033442   0.515227
 Mulliken charges:
               1
     1  O   -0.305360
     2  H    0.152680
     3  H    0.152680
 Sum of Mulliken charges =  -0.00000
 Mulliken charges with hydrogens summed into heavy atoms:
               1
     1  O   -0.000000
 Electronic spatial extent (au):  <R**2>=             18.7321
 Charge=              0.0000 electrons
 Dipole moment (field-independent basis, Debye):
    X=             -0.0000    Y=              0.0000    Z=             -2.0630  Tot=              2.0630
 Quadrupole moment (field-independent basis, Debye-Ang):
   XX=             -7.0344   YY=             -4.1376   ZZ=             -5.8754
   XY=              0.0000   XZ=              0.0000   YZ=             -0.0000
 Traceless Quadrupole moment (field-independent basis, Debye-Ang):
   XX=             -1.3519   YY=              1.5449   ZZ=             -0.1930
   XY=              0.0000   XZ=              0.0000   YZ=             -0.0000
 Octapole moment (field-independent basis, Debye-Ang**2):
  XXX=              0.0000  YYY=              0.0000  ZZZ=             -1.2078  XYY=             -0.0000
  XXY=              0.0000  XXZ=             -0.2995  XZZ=              0.0000  YZZ=             -0.0000
  YYZ=             -1.2932  XYZ=             -0.0000
 Hexadecapole moment (field-independent basis, Debye-Ang**3):
 XXXX=             -4.8514 YYYY=             -5.5248 ZZZZ=             -5.8364 XXXY=             -0.0000
 XXXZ=             -0.0000 YYYX=             -0.0000 YYYZ=              0.0000 ZZZX=             -0.0000
 ZZZY=              0.0000 XXYY=             -2.0230 XXZZ=             -1.8401 YYZZ=             -1.5207
 XXYZ=              0.0000 YYXZ=              0.0000 ZZXY=             -0.0000
 N-N= 9.189340881165D+00 E-N=-1.991267678911D+02  KE= 7.598686192587D+01
 Symmetry A1   KE= 6.794677071860D+01
 Symmetry A2   KE= 3.696077380460D-34
 Symmetry B1   KE= 4.557755898330D+00
 Symmetry B2   KE= 3.482335308945D+00
 Unable to Open any file for archive entry.
 1\1\GINC-RC5-1\SP\RCCSD(T)-FC\CC-pVDZ\H2O1\AJS99778\25-Jun-2021\0\\#n 
 CCSD(T)/cc-pVDZ\\test\\0,1\O,0,0.,0.,0.11779\H,0,-0.75542,0.,-0.47118\
 H,0,0.75542,0.,-0.47118\\Version=ES64L-G16RevC.01\State=1-A1\HF=-76.02
 67687\MP2=-76.2284793\MP3=-76.2354713\MP4D=-76.2388538\MP4DQ=-76.23705
 11\MP4SDQ=-76.2377309\CCSD=-76.2380419\CCSD(T)=-76.2410826\RMSD=3.522e
 -09\PG=C02V [C2(O1),SGV(H2)]\\@
 The archive entry for this job was punched.


 FRICTION IS A DRAG,
 AND ENTROPY AIN'T WHAT IT USED TO BE.
 Job cpu time:       0 days  0 hours  0 minutes  8.6 seconds.
 Elapsed time:       0 days  0 hours  0 minutes  2.8 seconds.
 File lengths (MBytes):  RWF=     19 Int=      0 D2E=      0 Chk=      1 Scr=      1
 Normal termination of Gaussian 16 at Fri Jun 25 11:17:40 2021.
