 Entering Gaussian System, Link 0=g09
 Input=/home/vmi38398/chem/asymmetric_hydrogenation/lig_only/S_binap/S_binap-TMEN/S/ts3/S_binap-TMEN.S.ts3.1.com
 Output=/home/vmi38398/chem/asymmetric_hydrogenation/lig_only/S_binap/S_binap-TMEN/S/ts3/S_binap-TMEN.S.ts3.1.log
 Initial command:
 /usr/local/apps/eb/gaussian/09-Intel-SSE4_2/g09/l1.exe "/lscratch/vmi38398/606054.sapelo2/Gau-246224.inp" -scrdir="/lscratch/vmi38398/606054.sapelo2/"
 Default is to use a total of   2 processors:
                                2 via shared-memory
                                1 via Linda
 Entering Link 1 = /usr/local/apps/eb/gaussian/09-Intel-SSE4_2/g09/l1.exe PID=    246225.
  
 Copyright (c) 1988,1990,1992,1993,1995,1998,2003,2009,2013,
            Gaussian, Inc.  All Rights Reserved.
  
 This is part of the Gaussian(R) 09 program.  It is based on
 the Gaussian(R) 03 system (copyright 2003, Gaussian, Inc.),
 the Gaussian(R) 98 system (copyright 1998, Gaussian, Inc.),
 the Gaussian(R) 94 system (copyright 1995, Gaussian, Inc.),
 the Gaussian 92(TM) system (copyright 1992, Gaussian, Inc.),
 the Gaussian 90(TM) system (copyright 1990, Gaussian, Inc.),
 the Gaussian 88(TM) system (copyright 1988, Gaussian, Inc.),
 the Gaussian 86(TM) system (copyright 1986, Carnegie Mellon
 University), and the Gaussian 82(TM) system (copyright 1983,
 Carnegie Mellon University). Gaussian is a federally registered
 trademark of Gaussian, Inc.
  
 This software contains proprietary and confidential information,
 including trade secrets, belonging to Gaussian, Inc.
  
 This software is provided under written license and may be
 used, copied, transmitted, or stored only in accord with that
 written license.
  
 The following legend is applicable only to US Government
 contracts under FAR:
  
                    RESTRICTED RIGHTS LEGEND
  
 Use, reproduction and disclosure by the US Government is
 subject to restrictions as set forth in subparagraphs (a)
 and (c) of the Commercial Computer Software - Restricted
 Rights clause in FAR 52.227-19.
  
 Gaussian, Inc.
 340 Quinnipiac St., Bldg. 40, Wallingford CT 06492
  
  
 ---------------------------------------------------------------
 Warning -- This program may not be used in any manner that
 competes with the business of Gaussian, Inc. or will provide
 assistance to any competitor of Gaussian, Inc.  The licensee
 of this program is prohibited from giving any competitor of
 Gaussian, Inc. access to this program.  By using this program,
 the user acknowledges that Gaussian, Inc. is engaged in the
 business of creating and licensing software in the field of
 computational chemistry and represents and warrants to the
 licensee that it is not a competitor of Gaussian, Inc. and that
 it will not use this program in any manner prohibited above.
 ---------------------------------------------------------------
  

 Cite this work as:
 Gaussian 09, Revision D.01,
 M. J. Frisch, G. W. Trucks, H. B. Schlegel, G. E. Scuseria, 
 M. A. Robb, J. R. Cheeseman, G. Scalmani, V. Barone, B. Mennucci, 
 G. A. Petersson, H. Nakatsuji, M. Caricato, X. Li, H. P. Hratchian, 
 A. F. Izmaylov, J. Bloino, G. Zheng, J. L. Sonnenberg, M. Hada, 
 M. Ehara, K. Toyota, R. Fukuda, J. Hasegawa, M. Ishida, T. Nakajima, 
 Y. Honda, O. Kitao, H. Nakai, T. Vreven, J. A. Montgomery, Jr., 
 J. E. Peralta, F. Ogliaro, M. Bearpark, J. J. Heyd, E. Brothers, 
 K. N. Kudin, V. N. Staroverov, T. Keith, R. Kobayashi, J. Normand, 
 K. Raghavachari, A. Rendell, J. C. Burant, S. S. Iyengar, J. Tomasi, 
 M. Cossi, N. Rega, J. M. Millam, M. Klene, J. E. Knox, J. B. Cross, 
 V. Bakken, C. Adamo, J. Jaramillo, R. Gomperts, R. E. Stratmann, 
 O. Yazyev, A. J. Austin, R. Cammi, C. Pomelli, J. W. Ochterski, 
 R. L. Martin, K. Morokuma, V. G. Zakrzewski, G. A. Voth, 
 P. Salvador, J. J. Dannenberg, S. Dapprich, A. D. Daniels, 
 O. Farkas, J. B. Foresman, J. V. Ortiz, J. Cioslowski, 
 and D. J. Fox, Gaussian, Inc., Wallingford CT, 2013.
 
 ******************************************
 Gaussian 09:  ES64L-G09RevD.01 24-Apr-2013
                 3-Dec-2018 
 ******************************************
 --------------
 #PM6 opt nosym
 --------------
 1/14=-1,18=20,19=15,26=1,38=1/1,3;
 2/9=110,12=2,15=1,17=6,18=5,40=1/2;
 3/5=2,16=1,25=1,41=3900000,71=1/1,2,3;
 4/35=1/1;
 5/5=2,35=1,38=5/2;
 6/7=2,8=2,9=2,10=2,28=1/1;
 7/30=1/1,2,3,16;
 1/14=-1,18=20,19=15,26=1/3(2);
 2/9=110,15=1/2;
 99//99;
 2/9=110,15=1/2;
 3/5=2,16=1,25=1,41=3900000,71=1,135=20/1,2,3;
 4/5=5,16=3,35=1/1;
 5/5=2,35=1,38=5/2;
 7/30=1/1,2,3,16;
 1/14=-1,18=20,19=15,26=1/3(-5);
 2/9=110,15=1/2;
 6/7=2,8=2,9=2,10=2,19=2,28=1/1;
 99/9=1/99;
 Leave Link    1 at Mon Dec  3 12:47:40 2018, MaxMem=           0 cpu:         0.0
 (Enter /usr/local/apps/eb/gaussian/09-Intel-SSE4_2/g09/l101.exe)
 --------------------------
 step 1 (attempt 1) cycle 1
 --------------------------
 Symbolic Z-matrix:
 Charge =  0 Multiplicity = 1
 H                    -1   -2.88366   0.60791  -2.97111 
 C                    -1   -2.07314   1.30705  -3.18318 
 C                    -1   -1.86827   2.23726  -1.9927 
 O                    -1   -2.86708   2.52585  -1.2774 
 H                    -1   -0.93516   2.6217   -1.77701 
 H                    -1   -1.17782   0.74569  -3.45892 
 H                    -1   -2.38117   1.91439  -4.04555 
 H                    -1   -0.91734   1.17893  -1.09627 
 H                    -1   -1.06156  -1.37213   1.25244 
 N                    -1   -2.57618   0.82415   0.99001 
 N                    -1   -2.54694  -1.14118  -0.90272 
 C                    -1   -3.81933   0.32061   0.36926 
 H                    -1   -2.65681   0.76724   2.00345 
 H                    -1   -2.45748   1.81667   0.74185 
 C                    -1   -3.83873  -0.94378  -0.20587 
 H                    -1   -2.65098  -0.87114  -1.87922 
 H                    -1   -2.32506  -2.1346   -0.92406 
 C                    0    -4.20236   1.32032  -0.73742 
 C                    0    -4.78597   0.18724   1.56035 
 C                    0    -5.01064  -1.06761  -1.19692 
 C                    0    -4.01412  -2.01433   0.88685 
 H                    0    -3.51854   1.20569  -1.60497 
 H                    0    -4.12653   2.35928  -0.35245 
 H                    0    -5.24485   1.13422  -1.07205 
 H                    0    -4.92332   1.17484   2.04942 
 H                    0    -4.3759   -0.52967   2.30283 
 H                    0    -5.77248  -0.18193   1.20836 
 H                    0    -5.2861   -2.13565  -1.32658 
 H                    0    -4.7193   -0.6474   -2.18278 
 H                    0    -5.89189  -0.51123  -0.81322 
 H                    0    -3.66265  -2.9991    0.51253 
 H                    0    -5.08521  -2.09631   1.16868 
 H                    0    -3.42401  -1.73814   1.78623 
 Ru                   -1   -0.85852  -0.17925   0.13889 
 P                    -1    0.67153  -1.52415  -0.87808 
 P                    -1    0.71625   0.74474   1.48371 
 C                    -1   -0.22123  -3.07383  -1.36188 
 C                    -1    1.57223  -1.10676  -2.43284 
 C                    -1    2.14214  -2.05282   0.12476 
 C                    -1    0.13809   2.26677   2.36976 
 C                    -1    1.50695  -0.1796    2.87626 
 C                    -1    2.19976   1.26095   0.50016 
 C                    -1    3.09896  -1.11606   0.49849 
 C                    -1    2.26661  -3.39372   0.57254 
 C                    -1    3.0909    0.31006   0.02031 
 C                    -1    2.2949    2.60539   0.05106 
 C                    -1    4.17872  -1.50846   1.36172 
 C                    -1    3.27302  -3.77703   1.41541 
 H                    -1    1.55501  -4.13996   0.24123 
 C                    -1    4.08045   0.6915   -0.94946 
 C                    -1    3.24706   2.98852  -0.85125 
 H                    -1    1.60021   3.34838   0.42737 
 C                    -1    4.24582  -2.8436    1.84522 
 C                    -1    5.18603  -0.5964    1.78644 
 H                    -1    3.34066  -4.80733   1.75553 
 C                    -1    4.15668   2.043    -1.38485 
 C                    -1    4.98211  -0.24605  -1.52606 
 H                    -1    3.30795   4.0235   -1.17642 
 C                    -1    5.2846   -3.22098   2.73762 
 C                    -1    6.18654  -0.98949   2.63844 
 H                    -1    5.15468   0.43229   1.44577 
 C                    -1    5.12003   2.41795  -2.35791 
 C                    -1    5.9002    0.14149  -2.46957 
 H                    -1    4.9303   -1.28811  -1.23013 
 C                    -1    6.23712  -2.31571   3.1274 
 H                    -1    5.31012  -4.24523   3.10116 
 H                    -1    6.9402   -0.27244   2.95126 
 C                    -1    5.97607   1.48914  -2.89122 
 H                    -1    5.15898   3.45678  -2.67659 
 H                    -1    6.56968  -0.5959   -2.90334 
 H                    -1    7.03006  -2.61147   3.80833 
 H                    -1    6.70735   1.78152  -3.63926 
 C                    -1   -0.56557  -3.31815  -2.69591 
 C                    -1   -0.80334  -3.88289  -0.37211 
 C                    -1   -1.44742  -4.34582  -3.03275 
 H                    -1   -0.1626   -2.69703  -3.48917 
 C                    -1   -1.67173  -4.91675  -0.70786 
 H                    -1   -0.604    -3.68425   0.67657 
 C                    -1   -2.00022  -5.15109  -2.04281 
 H                    -1   -1.70271  -4.50952  -4.07598 
 H                    -1   -2.10487  -5.5295    0.07766 
 H                    -1   -2.68825  -5.94944  -2.30541 
 C                    -1    2.35464  -2.06351  -3.09464 
 C                    -1    1.56103   0.20217  -2.90559 
 C                    -1    3.08335  -1.71805  -4.22667 
 H                    -1    2.3953   -3.08515  -2.72408 
 C                    -1    2.30699   0.55645  -4.02996 
 H                    -1    0.99552   0.95234  -2.36012 
 C                    -1    3.06071  -0.40358  -4.69643 
 H                    -1    3.6815   -2.46904  -4.73512 
 H                    -1    2.314     1.58716  -4.37305 
 H                    -1    3.64453  -0.12845  -5.57038 
 C                    -1    0.30101   2.5061    3.73915 
 C                    -1   -0.6113    3.1854    1.62479 
 C                    -1   -0.2477    3.64178   4.33364 
 H                    -1    0.84864   1.80887   4.36256 
 C                    -1   -1.14629   4.32755   2.21095 
 H                    -1   -0.78039   2.98937   0.57212 
 C                    -1   -0.96574   4.55971   3.57283 
 H                    -1   -0.11077   3.80487   5.39905 
 H                    -1   -1.71415   5.03009   1.60703 
 H                    -1   -1.38992   5.44465   4.03878 
 C                    -1    2.62631   0.36062   3.5229 
 C                    -1    1.0145   -1.41094   3.31133 
 C                    -1    3.2357   -0.31241   4.57641 
 H                    -1    3.03555   1.31269   3.19395 
 C                    -1    1.63458  -2.09724   4.35418 
 H                    -1    0.15297  -1.84429   2.81294 
 C                    -1    2.74699  -1.55071   4.98873 
 H                    -1    4.107     0.11992   5.05976 
 H                    -1    1.24869  -3.06411   4.66566 
 H                    -1    3.23323  -2.08685   5.79888 
 
 Add virtual bond connecting atoms H8         and H5         Dist= 3.01D+00.
 Add virtual bond connecting atoms H22        and H1         Dist= 3.06D+00.
 Add virtual bond connecting atoms H22        and O4         Dist= 2.85D+00.
 Add virtual bond connecting atoms H23        and O4         Dist= 2.97D+00.
 NAtoms=    112 NQM=       16 NQMF=      96 NMMI=      0 NMMIF=      0
                NMic=       0 NMicF=      0.
                    Isotopes and Nuclear Properties:
 (Nuclear quadrupole moments (NQMom) in fm**2, nuclear magnetic moments (NMagM)
  in nuclear magnetons)

  Atom         1           2           3           4           5           6           7           8           9          10
 IAtWgt=           1          12          12          16           1           1           1           1           1          14
 AtmWgt=   1.0078250  12.0000000  12.0000000  15.9949146   1.0078250   1.0078250   1.0078250   1.0078250   1.0078250  14.0030740
 NucSpn=           1           0           0           0           1           1           1           1           1           2
 AtZEff=   0.0000000   0.0000000   0.0000000   0.0000000   0.0000000   0.0000000   0.0000000   0.0000000   0.0000000   0.0000000
 NQMom=    0.0000000   0.0000000   0.0000000   0.0000000   0.0000000   0.0000000   0.0000000   0.0000000   0.0000000   2.0440000
 NMagM=    2.7928460   0.0000000   0.0000000   0.0000000   2.7928460   2.7928460   2.7928460   2.7928460   2.7928460   0.4037610
 AtZNuc=   1.0000000   6.0000000   6.0000000   8.0000000   1.0000000   1.0000000   1.0000000   1.0000000   1.0000000   7.0000000

  Atom        11          12          13          14          15          16          17          18          19          20
 IAtWgt=          14          12           1           1          12           1           1          12          12          12
 AtmWgt=  14.0030740  12.0000000   1.0078250   1.0078250  12.0000000   1.0078250   1.0078250  12.0000000  12.0000000  12.0000000
 NucSpn=           2           0           1           1           0           1           1           0           0           0
 AtZEff=   0.0000000   0.0000000   0.0000000   0.0000000   0.0000000   0.0000000   0.0000000   0.0000000   0.0000000   0.0000000
 NQMom=    2.0440000   0.0000000   0.0000000   0.0000000   0.0000000   0.0000000   0.0000000   0.0000000   0.0000000   0.0000000
 NMagM=    0.4037610   0.0000000   2.7928460   2.7928460   0.0000000   2.7928460   2.7928460   0.0000000   0.0000000   0.0000000
 AtZNuc=   7.0000000   6.0000000   1.0000000   1.0000000   6.0000000   1.0000000   1.0000000   6.0000000   6.0000000   6.0000000

  Atom        21          22          23          24          25          26          27          28          29          30
 IAtWgt=          12           1           1           1           1           1           1           1           1           1
 AtmWgt=  12.0000000   1.0078250   1.0078250   1.0078250   1.0078250   1.0078250   1.0078250   1.0078250   1.0078250   1.0078250
 NucSpn=           0           1           1           1           1           1           1           1           1           1
 AtZEff=   0.0000000   0.0000000   0.0000000   0.0000000   0.0000000   0.0000000   0.0000000   0.0000000   0.0000000   0.0000000
 NQMom=    0.0000000   0.0000000   0.0000000   0.0000000   0.0000000   0.0000000   0.0000000   0.0000000   0.0000000   0.0000000
 NMagM=    0.0000000   2.7928460   2.7928460   2.7928460   2.7928460   2.7928460   2.7928460   2.7928460   2.7928460   2.7928460
 AtZNuc=   6.0000000   1.0000000   1.0000000   1.0000000   1.0000000   1.0000000   1.0000000   1.0000000   1.0000000   1.0000000

  Atom        31          32          33          34          35          36          37          38          39          40
 IAtWgt=           1           1           1         102          31          31          12          12          12          12
 AtmWgt=   1.0078250   1.0078250   1.0078250 101.9037000  30.9737634  30.9737634  12.0000000  12.0000000  12.0000000  12.0000000
 NucSpn=           1           1           1           0           1           1           0           0           0           0
 AtZEff=   0.0000000   0.0000000   0.0000000   0.0000000   0.0000000   0.0000000   0.0000000   0.0000000   0.0000000   0.0000000
 NQMom=    0.0000000   0.0000000   0.0000000   0.0000000   0.0000000   0.0000000   0.0000000   0.0000000   0.0000000   0.0000000
 NMagM=    2.7928460   2.7928460   2.7928460   0.0000000   1.1316000   1.1316000   0.0000000   0.0000000   0.0000000   0.0000000
 AtZNuc=   1.0000000   1.0000000   1.0000000  44.0000000  15.0000000  15.0000000   6.0000000   6.0000000   6.0000000   6.0000000

  Atom        41          42          43          44          45          46          47          48          49          50
 IAtWgt=          12          12          12          12          12          12          12          12           1          12
 AtmWgt=  12.0000000  12.0000000  12.0000000  12.0000000  12.0000000  12.0000000  12.0000000  12.0000000   1.0078250  12.0000000
 NucSpn=           0           0           0           0           0           0           0           0           1           0
 AtZEff=   0.0000000   0.0000000   0.0000000   0.0000000   0.0000000   0.0000000   0.0000000   0.0000000   0.0000000   0.0000000
 NQMom=    0.0000000   0.0000000   0.0000000   0.0000000   0.0000000   0.0000000   0.0000000   0.0000000   0.0000000   0.0000000
 NMagM=    0.0000000   0.0000000   0.0000000   0.0000000   0.0000000   0.0000000   0.0000000   0.0000000   2.7928460   0.0000000
 AtZNuc=   6.0000000   6.0000000   6.0000000   6.0000000   6.0000000   6.0000000   6.0000000   6.0000000   1.0000000   6.0000000

  Atom        51          52          53          54          55          56          57          58          59          60
 IAtWgt=          12           1          12          12           1          12          12           1          12          12
 AtmWgt=  12.0000000   1.0078250  12.0000000  12.0000000   1.0078250  12.0000000  12.0000000   1.0078250  12.0000000  12.0000000
 NucSpn=           0           1           0           0           1           0           0           1           0           0
 AtZEff=   0.0000000   0.0000000   0.0000000   0.0000000   0.0000000   0.0000000   0.0000000   0.0000000   0.0000000   0.0000000
 NQMom=    0.0000000   0.0000000   0.0000000   0.0000000   0.0000000   0.0000000   0.0000000   0.0000000   0.0000000   0.0000000
 NMagM=    0.0000000   2.7928460   0.0000000   0.0000000   2.7928460   0.0000000   0.0000000   2.7928460   0.0000000   0.0000000
 AtZNuc=   6.0000000   1.0000000   6.0000000   6.0000000   1.0000000   6.0000000   6.0000000   1.0000000   6.0000000   6.0000000

  Atom        61          62          63          64          65          66          67          68          69          70
 IAtWgt=           1          12          12           1          12           1           1          12           1           1
 AtmWgt=   1.0078250  12.0000000  12.0000000   1.0078250  12.0000000   1.0078250   1.0078250  12.0000000   1.0078250   1.0078250
 NucSpn=           1           0           0           1           0           1           1           0           1           1
 AtZEff=   0.0000000   0.0000000   0.0000000   0.0000000   0.0000000   0.0000000   0.0000000   0.0000000   0.0000000   0.0000000
 NQMom=    0.0000000   0.0000000   0.0000000   0.0000000   0.0000000   0.0000000   0.0000000   0.0000000   0.0000000   0.0000000
 NMagM=    2.7928460   0.0000000   0.0000000   2.7928460   0.0000000   2.7928460   2.7928460   0.0000000   2.7928460   2.7928460
 AtZNuc=   1.0000000   6.0000000   6.0000000   1.0000000   6.0000000   1.0000000   1.0000000   6.0000000   1.0000000   1.0000000

  Atom        71          72          73          74          75          76          77          78          79          80
 IAtWgt=           1           1          12          12          12           1          12           1          12           1
 AtmWgt=   1.0078250   1.0078250  12.0000000  12.0000000  12.0000000   1.0078250  12.0000000   1.0078250  12.0000000   1.0078250
 NucSpn=           1           1           0           0           0           1           0           1           0           1
 AtZEff=   0.0000000   0.0000000   0.0000000   0.0000000   0.0000000   0.0000000   0.0000000   0.0000000   0.0000000   0.0000000
 NQMom=    0.0000000   0.0000000   0.0000000   0.0000000   0.0000000   0.0000000   0.0000000   0.0000000   0.0000000   0.0000000
 NMagM=    2.7928460   2.7928460   0.0000000   0.0000000   0.0000000   2.7928460   0.0000000   2.7928460   0.0000000   2.7928460
 AtZNuc=   1.0000000   1.0000000   6.0000000   6.0000000   6.0000000   1.0000000   6.0000000   1.0000000   6.0000000   1.0000000

  Atom        81          82          83          84          85          86          87          88          89          90
 IAtWgt=           1           1          12          12          12           1          12           1          12           1
 AtmWgt=   1.0078250   1.0078250  12.0000000  12.0000000  12.0000000   1.0078250  12.0000000   1.0078250  12.0000000   1.0078250
 NucSpn=           1           1           0           0           0           1           0           1           0           1
 AtZEff=   0.0000000   0.0000000   0.0000000   0.0000000   0.0000000   0.0000000   0.0000000   0.0000000   0.0000000   0.0000000
 NQMom=    0.0000000   0.0000000   0.0000000   0.0000000   0.0000000   0.0000000   0.0000000   0.0000000   0.0000000   0.0000000
 NMagM=    2.7928460   2.7928460   0.0000000   0.0000000   0.0000000   2.7928460   0.0000000   2.7928460   0.0000000   2.7928460
 AtZNuc=   1.0000000   1.0000000   6.0000000   6.0000000   6.0000000   1.0000000   6.0000000   1.0000000   6.0000000   1.0000000

  Atom        91          92          93          94          95          96          97          98          99         100
 IAtWgt=           1           1          12          12          12           1          12           1          12           1
 AtmWgt=   1.0078250   1.0078250  12.0000000  12.0000000  12.0000000   1.0078250  12.0000000   1.0078250  12.0000000   1.0078250
 NucSpn=           1           1           0           0           0           1           0           1           0           1
 AtZEff=   0.0000000   0.0000000   0.0000000   0.0000000   0.0000000   0.0000000   0.0000000   0.0000000   0.0000000   0.0000000
 NQMom=    0.0000000   0.0000000   0.0000000   0.0000000   0.0000000   0.0000000   0.0000000   0.0000000   0.0000000   0.0000000
 NMagM=    2.7928460   2.7928460   0.0000000   0.0000000   0.0000000   2.7928460   0.0000000   2.7928460   0.0000000   2.7928460
 AtZNuc=   1.0000000   1.0000000   6.0000000   6.0000000   6.0000000   1.0000000   6.0000000   1.0000000   6.0000000   1.0000000

  Atom       101         102         103         104         105         106         107         108         109         110
 IAtWgt=           1           1          12          12          12           1          12           1          12           1
 AtmWgt=   1.0078250   1.0078250  12.0000000  12.0000000  12.0000000   1.0078250  12.0000000   1.0078250  12.0000000   1.0078250
 NucSpn=           1           1           0           0           0           1           0           1           0           1
 AtZEff=   0.0000000   0.0000000   0.0000000   0.0000000   0.0000000   0.0000000   0.0000000   0.0000000   0.0000000   0.0000000
 NQMom=    0.0000000   0.0000000   0.0000000   0.0000000   0.0000000   0.0000000   0.0000000   0.0000000   0.0000000   0.0000000
 NMagM=    2.7928460   2.7928460   0.0000000   0.0000000   0.0000000   2.7928460   0.0000000   2.7928460   0.0000000   2.7928460
 AtZNuc=   1.0000000   1.0000000   6.0000000   6.0000000   6.0000000   1.0000000   6.0000000   1.0000000   6.0000000   1.0000000

  Atom       111         112
 IAtWgt=           1           1
 AtmWgt=   1.0078250   1.0078250
 NucSpn=           1           1
 AtZEff=   0.0000000   0.0000000
 NQMom=    0.0000000   0.0000000
 NMagM=    2.7928460   2.7928460
 AtZNuc=   1.0000000   1.0000000
 Leave Link  101 at Mon Dec  3 12:47:41 2018, MaxMem=   402653184 cpu:         0.3
 (Enter /usr/local/apps/eb/gaussian/09-Intel-SSE4_2/g09/l103.exe)

 GradGradGradGradGradGradGradGradGradGradGradGradGradGradGradGradGradGrad
 Berny optimization.
 Initialization pass.
                           ----------------------------
                           !    Initial Parameters    !
                           ! (Angstroms and Degrees)  !
 --------------------------                            --------------------------
 ! Name  Definition              Value          Derivative Info.                !
 --------------------------------------------------------------------------------
 ! X1    R(1,-1)                -2.8837         Frozen                          !
 ! Y1    R(1,-2)                 0.6079         Frozen                          !
 ! Z1    R(1,-3)                -2.9711         Frozen                          !
 ! X2    R(2,-1)                -2.0731         Frozen                          !
 ! Y2    R(2,-2)                 1.3071         Frozen                          !
 ! Z2    R(2,-3)                -3.1832         Frozen                          !
 ! X3    R(3,-1)                -1.8683         Frozen                          !
 ! Y3    R(3,-2)                 2.2373         Frozen                          !
 ! Z3    R(3,-3)                -1.9927         Frozen                          !
 ! X4    R(4,-1)                -2.8671         Frozen                          !
 ! Y4    R(4,-2)                 2.5259         Frozen                          !
 ! Z4    R(4,-3)                -1.2774         Frozen                          !
 ! X5    R(5,-1)                -0.9352         Frozen                          !
 ! Y5    R(5,-2)                 2.6217         Frozen                          !
 ! Z5    R(5,-3)                -1.777          Frozen                          !
 ! X6    R(6,-1)                -1.1778         Frozen                          !
 ! Y6    R(6,-2)                 0.7457         Frozen                          !
 ! Z6    R(6,-3)                -3.4589         Frozen                          !
 ! X7    R(7,-1)                -2.3812         Frozen                          !
 ! Y7    R(7,-2)                 1.9144         Frozen                          !
 ! Z7    R(7,-3)                -4.0456         Frozen                          !
 ! X8    R(8,-1)                -0.9173         Frozen                          !
 ! Y8    R(8,-2)                 1.1789         Frozen                          !
 ! Z8    R(8,-3)                -1.0963         Frozen                          !
 ! X9    R(9,-1)                -1.0616         Frozen                          !
 ! Y9    R(9,-2)                -1.3721         Frozen                          !
 ! Z9    R(9,-3)                 1.2524         Frozen                          !
 ! X10   R(10,-1)               -2.5762         Frozen                          !
 ! Y10   R(10,-2)                0.8242         Frozen                          !
 ! Z10   R(10,-3)                0.99           Frozen                          !
 ! X11   R(11,-1)               -2.5469         Frozen                          !
 ! Y11   R(11,-2)               -1.1412         Frozen                          !
 ! Z11   R(11,-3)               -0.9027         Frozen                          !
 ! X12   R(12,-1)               -3.8193         Frozen                          !
 ! Y12   R(12,-2)                0.3206         Frozen                          !
 ! Z12   R(12,-3)                0.3693         Frozen                          !
 ! X13   R(13,-1)               -2.6568         Frozen                          !
 ! Y13   R(13,-2)                0.7672         Frozen                          !
 ! Z13   R(13,-3)                2.0034         Frozen                          !
 ! X14   R(14,-1)               -2.4575         Frozen                          !
 ! Y14   R(14,-2)                1.8167         Frozen                          !
 ! Z14   R(14,-3)                0.7419         Frozen                          !
 ! X15   R(15,-1)               -3.8387         Frozen                          !
 ! Y15   R(15,-2)               -0.9438         Frozen                          !
 ! Z15   R(15,-3)               -0.2059         Frozen                          !
 ! X16   R(16,-1)               -2.651          Frozen                          !
 ! Y16   R(16,-2)               -0.8711         Frozen                          !
 ! Z16   R(16,-3)               -1.8792         Frozen                          !
 ! X17   R(17,-1)               -2.3251         Frozen                          !
 ! Y17   R(17,-2)               -2.1346         Frozen                          !
 ! Z17   R(17,-3)               -0.9241         Frozen                          !
 ! X34   R(34,-1)               -0.8585         Frozen                          !
 ! Y34   R(34,-2)               -0.1793         Frozen                          !
 ! Z34   R(34,-3)                0.1389         Frozen                          !
 ! X35   R(35,-1)                0.6715         Frozen                          !
 ! Y35   R(35,-2)               -1.5242         Frozen                          !
 ! Z35   R(35,-3)               -0.8781         Frozen                          !
 ! X36   R(36,-1)                0.7163         Frozen                          !
 ! Y36   R(36,-2)                0.7447         Frozen                          !
 ! Z36   R(36,-3)                1.4837         Frozen                          !
 ! X37   R(37,-1)               -0.2212         Frozen                          !
 ! Y37   R(37,-2)               -3.0738         Frozen                          !
 ! Z37   R(37,-3)               -1.3619         Frozen                          !
 ! X38   R(38,-1)                1.5722         Frozen                          !
 ! Y38   R(38,-2)               -1.1068         Frozen                          !
 ! Z38   R(38,-3)               -2.4328         Frozen                          !
 ! X39   R(39,-1)                2.1421         Frozen                          !
 ! Y39   R(39,-2)               -2.0528         Frozen                          !
 ! Z39   R(39,-3)                0.1248         Frozen                          !
 ! X40   R(40,-1)                0.1381         Frozen                          !
 ! Y40   R(40,-2)                2.2668         Frozen                          !
 ! Z40   R(40,-3)                2.3698         Frozen                          !
 ! X41   R(41,-1)                1.507          Frozen                          !
 ! Y41   R(41,-2)               -0.1796         Frozen                          !
 ! Z41   R(41,-3)                2.8763         Frozen                          !
 ! X42   R(42,-1)                2.1998         Frozen                          !
 ! Y42   R(42,-2)                1.261          Frozen                          !
 ! Z42   R(42,-3)                0.5002         Frozen                          !
 ! X43   R(43,-1)                3.099          Frozen                          !
 ! Y43   R(43,-2)               -1.1161         Frozen                          !
 ! Z43   R(43,-3)                0.4985         Frozen                          !
 ! X44   R(44,-1)                2.2666         Frozen                          !
 ! Y44   R(44,-2)               -3.3937         Frozen                          !
 ! Z44   R(44,-3)                0.5725         Frozen                          !
 ! X45   R(45,-1)                3.0909         Frozen                          !
 ! Y45   R(45,-2)                0.3101         Frozen                          !
 ! Z45   R(45,-3)                0.0203         Frozen                          !
 ! X46   R(46,-1)                2.2949         Frozen                          !
 ! Y46   R(46,-2)                2.6054         Frozen                          !
 ! Z46   R(46,-3)                0.0511         Frozen                          !
 ! X47   R(47,-1)                4.1787         Frozen                          !
 ! Y47   R(47,-2)               -1.5085         Frozen                          !
 ! Z47   R(47,-3)                1.3617         Frozen                          !
 ! X48   R(48,-1)                3.273          Frozen                          !
 ! Y48   R(48,-2)               -3.777          Frozen                          !
 ! Z48   R(48,-3)                1.4154         Frozen                          !
 ! X49   R(49,-1)                1.555          Frozen                          !
 ! Y49   R(49,-2)               -4.14           Frozen                          !
 ! Z49   R(49,-3)                0.2412         Frozen                          !
 ! X50   R(50,-1)                4.0804         Frozen                          !
 ! Y50   R(50,-2)                0.6915         Frozen                          !
 ! Z50   R(50,-3)               -0.9495         Frozen                          !
 ! X51   R(51,-1)                3.2471         Frozen                          !
 ! Y51   R(51,-2)                2.9885         Frozen                          !
 ! Z51   R(51,-3)               -0.8513         Frozen                          !
 ! X52   R(52,-1)                1.6002         Frozen                          !
 ! Y52   R(52,-2)                3.3484         Frozen                          !
 ! Z52   R(52,-3)                0.4274         Frozen                          !
 ! X53   R(53,-1)                4.2458         Frozen                          !
 ! Y53   R(53,-2)               -2.8436         Frozen                          !
 ! Z53   R(53,-3)                1.8452         Frozen                          !
 ! X54   R(54,-1)                5.186          Frozen                          !
 ! Y54   R(54,-2)               -0.5964         Frozen                          !
 ! Z54   R(54,-3)                1.7864         Frozen                          !
 ! X55   R(55,-1)                3.3407         Frozen                          !
 ! Y55   R(55,-2)               -4.8073         Frozen                          !
 ! Z55   R(55,-3)                1.7555         Frozen                          !
 ! X56   R(56,-1)                4.1567         Frozen                          !
 ! Y56   R(56,-2)                2.043          Frozen                          !
 ! Z56   R(56,-3)               -1.3849         Frozen                          !
 ! X57   R(57,-1)                4.9821         Frozen                          !
 ! Y57   R(57,-2)               -0.2461         Frozen                          !
 ! Z57   R(57,-3)               -1.5261         Frozen                          !
 ! X58   R(58,-1)                3.3079         Frozen                          !
 ! Y58   R(58,-2)                4.0235         Frozen                          !
 ! Z58   R(58,-3)               -1.1764         Frozen                          !
 ! X59   R(59,-1)                5.2846         Frozen                          !
 ! Y59   R(59,-2)               -3.221          Frozen                          !
 ! Z59   R(59,-3)                2.7376         Frozen                          !
 ! X60   R(60,-1)                6.1865         Frozen                          !
 ! Y60   R(60,-2)               -0.9895         Frozen                          !
 ! Z60   R(60,-3)                2.6384         Frozen                          !
 ! X61   R(61,-1)                5.1547         Frozen                          !
 ! Y61   R(61,-2)                0.4323         Frozen                          !
 ! Z61   R(61,-3)                1.4458         Frozen                          !
 ! X62   R(62,-1)                5.12           Frozen                          !
 ! Y62   R(62,-2)                2.418          Frozen                          !
 ! Z62   R(62,-3)               -2.3579         Frozen                          !
 ! X63   R(63,-1)                5.9002         Frozen                          !
 ! Y63   R(63,-2)                0.1415         Frozen                          !
 ! Z63   R(63,-3)               -2.4696         Frozen                          !
 ! X64   R(64,-1)                4.9303         Frozen                          !
 ! Y64   R(64,-2)               -1.2881         Frozen                          !
 ! Z64   R(64,-3)               -1.2301         Frozen                          !
 ! X65   R(65,-1)                6.2371         Frozen                          !
 ! Y65   R(65,-2)               -2.3157         Frozen                          !
 ! Z65   R(65,-3)                3.1274         Frozen                          !
 ! X66   R(66,-1)                5.3101         Frozen                          !
 ! Y66   R(66,-2)               -4.2452         Frozen                          !
 ! Z66   R(66,-3)                3.1012         Frozen                          !
 ! X67   R(67,-1)                6.9402         Frozen                          !
 ! Y67   R(67,-2)               -0.2724         Frozen                          !
 ! Z67   R(67,-3)                2.9513         Frozen                          !
 ! X68   R(68,-1)                5.9761         Frozen                          !
 ! Y68   R(68,-2)                1.4891         Frozen                          !
 ! Z68   R(68,-3)               -2.8912         Frozen                          !
 ! X69   R(69,-1)                5.159          Frozen                          !
 ! Y69   R(69,-2)                3.4568         Frozen                          !
 ! Z69   R(69,-3)               -2.6766         Frozen                          !
 ! X70   R(70,-1)                6.5697         Frozen                          !
 ! Y70   R(70,-2)               -0.5959         Frozen                          !
 ! Z70   R(70,-3)               -2.9033         Frozen                          !
 ! X71   R(71,-1)                7.0301         Frozen                          !
 ! Y71   R(71,-2)               -2.6115         Frozen                          !
 ! Z71   R(71,-3)                3.8083         Frozen                          !
 ! X72   R(72,-1)                6.7073         Frozen                          !
 ! Y72   R(72,-2)                1.7815         Frozen                          !
 ! Z72   R(72,-3)               -3.6393         Frozen                          !
 ! X73   R(73,-1)               -0.5656         Frozen                          !
 ! Y73   R(73,-2)               -3.3181         Frozen                          !
 ! Z73   R(73,-3)               -2.6959         Frozen                          !
 ! X74   R(74,-1)               -0.8033         Frozen                          !
 ! Y74   R(74,-2)               -3.8829         Frozen                          !
 ! Z74   R(74,-3)               -0.3721         Frozen                          !
 ! X75   R(75,-1)               -1.4474         Frozen                          !
 ! Y75   R(75,-2)               -4.3458         Frozen                          !
 ! Z75   R(75,-3)               -3.0327         Frozen                          !
 ! X76   R(76,-1)               -0.1626         Frozen                          !
 ! Y76   R(76,-2)               -2.697          Frozen                          !
 ! Z76   R(76,-3)               -3.4892         Frozen                          !
 ! X77   R(77,-1)               -1.6717         Frozen                          !
 ! Y77   R(77,-2)               -4.9167         Frozen                          !
 ! Z77   R(77,-3)               -0.7079         Frozen                          !
 ! X78   R(78,-1)               -0.604          Frozen                          !
 ! Y78   R(78,-2)               -3.6843         Frozen                          !
 ! Z78   R(78,-3)                0.6766         Frozen                          !
 ! X79   R(79,-1)               -2.0002         Frozen                          !
 ! Y79   R(79,-2)               -5.1511         Frozen                          !
 ! Z79   R(79,-3)               -2.0428         Frozen                          !
 ! X80   R(80,-1)               -1.7027         Frozen                          !
 ! Y80   R(80,-2)               -4.5095         Frozen                          !
 ! Z80   R(80,-3)               -4.076          Frozen                          !
 ! X81   R(81,-1)               -2.1049         Frozen                          !
 ! Y81   R(81,-2)               -5.5295         Frozen                          !
 ! Z81   R(81,-3)                0.0777         Frozen                          !
 ! X82   R(82,-1)               -2.6882         Frozen                          !
 ! Y82   R(82,-2)               -5.9494         Frozen                          !
 ! Z82   R(82,-3)               -2.3054         Frozen                          !
 ! X83   R(83,-1)                2.3546         Frozen                          !
 ! Y83   R(83,-2)               -2.0635         Frozen                          !
 ! Z83   R(83,-3)               -3.0946         Frozen                          !
 ! X84   R(84,-1)                1.561          Frozen                          !
 ! Y84   R(84,-2)                0.2022         Frozen                          !
 ! Z84   R(84,-3)               -2.9056         Frozen                          !
 ! X85   R(85,-1)                3.0834         Frozen                          !
 ! Y85   R(85,-2)               -1.7181         Frozen                          !
 ! Z85   R(85,-3)               -4.2267         Frozen                          !
 ! X86   R(86,-1)                2.3953         Frozen                          !
 ! Y86   R(86,-2)               -3.0852         Frozen                          !
 ! Z86   R(86,-3)               -2.7241         Frozen                          !
 ! X87   R(87,-1)                2.307          Frozen                          !
 ! Y87   R(87,-2)                0.5565         Frozen                          !
 ! Z87   R(87,-3)               -4.03           Frozen                          !
 ! X88   R(88,-1)                0.9955         Frozen                          !
 ! Y88   R(88,-2)                0.9523         Frozen                          !
 ! Z88   R(88,-3)               -2.3601         Frozen                          !
 ! X89   R(89,-1)                3.0607         Frozen                          !
 ! Y89   R(89,-2)               -0.4036         Frozen                          !
 ! Z89   R(89,-3)               -4.6964         Frozen                          !
 ! X90   R(90,-1)                3.6815         Frozen                          !
 ! Y90   R(90,-2)               -2.469          Frozen                          !
 ! Z90   R(90,-3)               -4.7351         Frozen                          !
 ! X91   R(91,-1)                2.314          Frozen                          !
 ! Y91   R(91,-2)                1.5872         Frozen                          !
 ! Z91   R(91,-3)               -4.3731         Frozen                          !
 ! X92   R(92,-1)                3.6445         Frozen                          !
 ! Y92   R(92,-2)               -0.1285         Frozen                          !
 ! Z92   R(92,-3)               -5.5704         Frozen                          !
 ! X93   R(93,-1)                0.301          Frozen                          !
 ! Y93   R(93,-2)                2.5061         Frozen                          !
 ! Z93   R(93,-3)                3.7391         Frozen                          !
 ! X94   R(94,-1)               -0.6113         Frozen                          !
 ! Y94   R(94,-2)                3.1854         Frozen                          !
 ! Z94   R(94,-3)                1.6248         Frozen                          !
 ! X95   R(95,-1)               -0.2477         Frozen                          !
 ! Y95   R(95,-2)                3.6418         Frozen                          !
 ! Z95   R(95,-3)                4.3336         Frozen                          !
 ! X96   R(96,-1)                0.8486         Frozen                          !
 ! Y96   R(96,-2)                1.8089         Frozen                          !
 ! Z96   R(96,-3)                4.3626         Frozen                          !
 ! X97   R(97,-1)               -1.1463         Frozen                          !
 ! Y97   R(97,-2)                4.3276         Frozen                          !
 ! Z97   R(97,-3)                2.2109         Frozen                          !
 ! X98   R(98,-1)               -0.7804         Frozen                          !
 ! Y98   R(98,-2)                2.9894         Frozen                          !
 ! Z98   R(98,-3)                0.5721         Frozen                          !
 ! X99   R(99,-1)               -0.9657         Frozen                          !
 ! Y99   R(99,-2)                4.5597         Frozen                          !
 ! Z99   R(99,-3)                3.5728         Frozen                          !
 ! X100  R(100,-1)              -0.1108         Frozen                          !
 ! Y100  R(100,-2)               3.8049         Frozen                          !
 ! Z100  R(100,-3)               5.399          Frozen                          !
 ! X101  R(101,-1)              -1.7142         Frozen                          !
 ! Y101  R(101,-2)               5.0301         Frozen                          !
 ! Z101  R(101,-3)               1.607          Frozen                          !
 ! X102  R(102,-1)              -1.3899         Frozen                          !
 ! Y102  R(102,-2)               5.4447         Frozen                          !
 ! Z102  R(102,-3)               4.0388         Frozen                          !
 ! X103  R(103,-1)               2.6263         Frozen                          !
 ! Y103  R(103,-2)               0.3606         Frozen                          !
 ! Z103  R(103,-3)               3.5229         Frozen                          !
 ! X104  R(104,-1)               1.0145         Frozen                          !
 ! Y104  R(104,-2)              -1.4109         Frozen                          !
 ! Z104  R(104,-3)               3.3113         Frozen                          !
 ! X105  R(105,-1)               3.2357         Frozen                          !
 ! Y105  R(105,-2)              -0.3124         Frozen                          !
 ! Z105  R(105,-3)               4.5764         Frozen                          !
 ! X106  R(106,-1)               3.0356         Frozen                          !
 ! Y106  R(106,-2)               1.3127         Frozen                          !
 ! Z106  R(106,-3)               3.194          Frozen                          !
 ! X107  R(107,-1)               1.6346         Frozen                          !
 ! Y107  R(107,-2)              -2.0972         Frozen                          !
 ! Z107  R(107,-3)               4.3542         Frozen                          !
 ! X108  R(108,-1)               0.153          Frozen                          !
 ! Y108  R(108,-2)              -1.8443         Frozen                          !
 ! Z108  R(108,-3)               2.8129         Frozen                          !
 ! X109  R(109,-1)               2.747          Frozen                          !
 ! Y109  R(109,-2)              -1.5507         Frozen                          !
 ! Z109  R(109,-3)               4.9887         Frozen                          !
 ! X110  R(110,-1)               4.107          Frozen                          !
 ! Y110  R(110,-2)               0.1199         Frozen                          !
 ! Z110  R(110,-3)               5.0598         Frozen                          !
 ! X111  R(111,-1)               1.2487         Frozen                          !
 ! Y111  R(111,-2)              -3.0641         Frozen                          !
 ! Z111  R(111,-3)               4.6657         Frozen                          !
 ! X112  R(112,-1)               3.2332         Frozen                          !
 ! Y112  R(112,-2)              -2.0869         Frozen                          !
 ! Z112  R(112,-3)               5.7989         Frozen                          !
 ! R1    R(1,22)                 1.6207         estimate D2E/DX2                !
 ! R2    R(4,22)                 1.5082         estimate D2E/DX2                !
 ! R3    R(4,23)                 1.5715         estimate D2E/DX2                !
 ! R4    R(12,18)                1.5398         estimate D2E/DX2                !
 ! R5    R(12,19)                1.5398         estimate D2E/DX2                !
 ! R6    R(15,20)                1.5398         estimate D2E/DX2                !
 ! R7    R(15,21)                1.5398         estimate D2E/DX2                !
 ! R8    R(18,22)                1.1106         estimate D2E/DX2                !
 ! R9    R(18,23)                1.1106         estimate D2E/DX2                !
 ! R10   R(18,24)                1.1106         estimate D2E/DX2                !
 ! R11   R(19,25)                1.1106         estimate D2E/DX2                !
 ! R12   R(19,26)                1.1106         estimate D2E/DX2                !
 ! R13   R(19,27)                1.1106         estimate D2E/DX2                !
 ! R14   R(20,28)                1.1106         estimate D2E/DX2                !
 ! R15   R(20,29)                1.1106         estimate D2E/DX2                !
 ! R16   R(20,30)                1.1106         estimate D2E/DX2                !
 ! R17   R(21,31)                1.1106         estimate D2E/DX2                !
 ! R18   R(21,32)                1.1106         estimate D2E/DX2                !
 ! R19   R(21,33)                1.1106         estimate D2E/DX2                !
 ! A1    A(2,1,22)             102.6192         estimate D2E/DX2                !
 ! A2    A(3,4,22)              91.0653         estimate D2E/DX2                !
 ! A3    A(3,4,23)             160.6839         estimate D2E/DX2                !
 ! A4    A(22,4,23)             71.8724         estimate D2E/DX2                !
 ! A5    A(10,12,18)           106.8524         estimate D2E/DX2                !
 ! A6    A(10,12,19)           103.4537         estimate D2E/DX2                !
 ! A7    A(15,12,18)           106.8524         estimate D2E/DX2                !
 ! A8    A(15,12,19)           103.4534         estimate D2E/DX2                !
 ! A9    A(18,12,19)           117.1325         estimate D2E/DX2                !
 ! A10   A(11,15,20)           110.5055         estimate D2E/DX2                !
 ! A11   A(11,15,21)           109.9137         estimate D2E/DX2                !
 ! A12   A(12,15,20)           110.5053         estimate D2E/DX2                !
 ! A13   A(12,15,21)           109.9134         estimate D2E/DX2                !
 ! A14   A(20,15,21)           108.31           estimate D2E/DX2                !
 ! A15   A(12,18,22)           109.9538         estimate D2E/DX2                !
 ! A16   A(12,18,23)           109.9543         estimate D2E/DX2                !
 ! A17   A(12,18,24)           109.9542         estimate D2E/DX2                !
 ! A18   A(22,18,23)           108.9842         estimate D2E/DX2                !
 ! A19   A(22,18,24)           108.9841         estimate D2E/DX2                !
 ! A20   A(23,18,24)           108.9838         estimate D2E/DX2                !
 ! A21   A(12,19,25)           109.9538         estimate D2E/DX2                !
 ! A22   A(12,19,26)           109.9543         estimate D2E/DX2                !
 ! A23   A(12,19,27)           109.9543         estimate D2E/DX2                !
 ! A24   A(25,19,26)           108.9842         estimate D2E/DX2                !
 ! A25   A(25,19,27)           108.9841         estimate D2E/DX2                !
 ! A26   A(26,19,27)           108.9838         estimate D2E/DX2                !
 ! A27   A(15,20,28)           109.9538         estimate D2E/DX2                !
 ! A28   A(15,20,29)           109.9543         estimate D2E/DX2                !
 ! A29   A(15,20,30)           109.9542         estimate D2E/DX2                !
 ! A30   A(28,20,29)           108.9842         estimate D2E/DX2                !
 ! A31   A(28,20,30)           108.9842         estimate D2E/DX2                !
 ! A32   A(29,20,30)           108.9838         estimate D2E/DX2                !
 ! A33   A(15,21,31)           109.9538         estimate D2E/DX2                !
 ! A34   A(15,21,32)           109.9543         estimate D2E/DX2                !
 ! A35   A(15,21,33)           109.9542         estimate D2E/DX2                !
 ! A36   A(31,21,32)           108.9842         estimate D2E/DX2                !
 ! A37   A(31,21,33)           108.9842         estimate D2E/DX2                !
 ! A38   A(32,21,33)           108.9837         estimate D2E/DX2                !
 ! A39   A(1,22,4)             109.6778         estimate D2E/DX2                !
 ! A40   A(1,22,18)            159.6738         estimate D2E/DX2                !
 ! A41   A(4,22,18)             90.3405         estimate D2E/DX2                !
 ! A42   A(4,23,18)             87.1257         estimate D2E/DX2                !
 ! D1    D(22,1,2,3)             9.8177         estimate D2E/DX2                !
 ! D2    D(22,1,2,6)           135.0032         estimate D2E/DX2                !
 ! D3    D(22,1,2,7)          -107.6672         estimate D2E/DX2                !
 ! D4    D(2,1,22,4)             6.4458         estimate D2E/DX2                !
 ! D5    D(2,1,22,18)          176.0462         estimate D2E/DX2                !
 ! D6    D(2,3,4,22)            28.8124         estimate D2E/DX2                !
 ! D7    D(2,3,4,23)            56.2244         estimate D2E/DX2                !
 ! D8    D(5,3,4,22)          -151.1883         estimate D2E/DX2                !
 ! D9    D(5,3,4,23)          -123.7763         estimate D2E/DX2                !
 ! D10   D(3,4,22,1)           -21.0821         estimate D2E/DX2                !
 ! D11   D(3,4,22,18)          162.513          estimate D2E/DX2                !
 ! D12   D(23,4,22,1)          168.1387         estimate D2E/DX2                !
 ! D13   D(23,4,22,18)          -8.2662         estimate D2E/DX2                !
 ! D14   D(3,4,23,18)          -20.693          estimate D2E/DX2                !
 ! D15   D(22,4,23,18)           8.2767         estimate D2E/DX2                !
 ! D16   D(13,10,12,18)        134.7593         estimate D2E/DX2                !
 ! D17   D(13,10,12,19)         10.5357         estimate D2E/DX2                !
 ! D18   D(14,10,12,18)         17.3664         estimate D2E/DX2                !
 ! D19   D(14,10,12,19)       -106.8572         estimate D2E/DX2                !
 ! D20   D(34,10,12,18)        -97.416          estimate D2E/DX2                !
 ! D21   D(34,10,12,19)        138.3604         estimate D2E/DX2                !
 ! D22   D(16,11,15,20)         27.1117         estimate D2E/DX2                !
 ! D23   D(16,11,15,21)        146.5987         estimate D2E/DX2                !
 ! D24   D(17,11,15,20)        -87.297          estimate D2E/DX2                !
 ! D25   D(17,11,15,21)         32.1899         estimate D2E/DX2                !
 ! D26   D(34,11,15,20)        155.5893         estimate D2E/DX2                !
 ! D27   D(34,11,15,21)        -84.9238         estimate D2E/DX2                !
 ! D28   D(10,12,15,20)       -159.9742         estimate D2E/DX2                !
 ! D29   D(10,12,15,21)         80.5392         estimate D2E/DX2                !
 ! D30   D(18,12,15,11)         82.261          estimate D2E/DX2                !
 ! D31   D(18,12,15,20)        -38.5281         estimate D2E/DX2                !
 ! D32   D(18,12,15,21)       -158.0148         estimate D2E/DX2                !
 ! D33   D(19,12,15,11)       -153.5156         estimate D2E/DX2                !
 ! D34   D(19,12,15,20)         85.6953         estimate D2E/DX2                !
 ! D35   D(19,12,15,21)        -33.7913         estimate D2E/DX2                !
 ! D36   D(10,12,18,22)         73.6275         estimate D2E/DX2                !
 ! D37   D(10,12,18,23)        -46.3726         estimate D2E/DX2                !
 ! D38   D(10,12,18,24)       -166.3725         estimate D2E/DX2                !
 ! D39   D(15,12,18,22)        -55.6425         estimate D2E/DX2                !
 ! D40   D(15,12,18,23)       -175.6426         estimate D2E/DX2                !
 ! D41   D(15,12,18,24)         64.3575         estimate D2E/DX2                !
 ! D42   D(19,12,18,22)       -171.0073         estimate D2E/DX2                !
 ! D43   D(19,12,18,23)         68.9927         estimate D2E/DX2                !
 ! D44   D(19,12,18,24)        -51.0073         estimate D2E/DX2                !
 ! D45   D(10,12,19,25)         59.5492         estimate D2E/DX2                !
 ! D46   D(10,12,19,26)        -60.4509         estimate D2E/DX2                !
 ! D47   D(10,12,19,27)        179.5493         estimate D2E/DX2                !
 ! D48   D(15,12,19,25)       -174.9069         estimate D2E/DX2                !
 ! D49   D(15,12,19,26)         65.093          estimate D2E/DX2                !
 ! D50   D(15,12,19,27)        -54.9068         estimate D2E/DX2                !
 ! D51   D(18,12,19,25)        -57.679          estimate D2E/DX2                !
 ! D52   D(18,12,19,26)       -177.6791         estimate D2E/DX2                !
 ! D53   D(18,12,19,27)         62.3211         estimate D2E/DX2                !
 ! D54   D(11,15,20,28)         84.3741         estimate D2E/DX2                !
 ! D55   D(11,15,20,29)        -35.626          estimate D2E/DX2                !
 ! D56   D(11,15,20,30)       -155.6258         estimate D2E/DX2                !
 ! D57   D(12,15,20,28)       -156.5268         estimate D2E/DX2                !
 ! D58   D(12,15,20,29)         83.4731         estimate D2E/DX2                !
 ! D59   D(12,15,20,30)        -36.5268         estimate D2E/DX2                !
 ! D60   D(21,15,20,28)        -36.0766         estimate D2E/DX2                !
 ! D61   D(21,15,20,29)       -156.0767         estimate D2E/DX2                !
 ! D62   D(21,15,20,30)         83.9235         estimate D2E/DX2                !
 ! D63   D(11,15,21,31)        -40.7943         estimate D2E/DX2                !
 ! D64   D(11,15,21,32)       -160.7944         estimate D2E/DX2                !
 ! D65   D(11,15,21,33)         79.2058         estimate D2E/DX2                !
 ! D66   D(12,15,21,31)       -159.1576         estimate D2E/DX2                !
 ! D67   D(12,15,21,32)         80.8423         estimate D2E/DX2                !
 ! D68   D(12,15,21,33)        -39.1575         estimate D2E/DX2                !
 ! D69   D(20,15,21,31)         80.0243         estimate D2E/DX2                !
 ! D70   D(20,15,21,32)        -39.9759         estimate D2E/DX2                !
 ! D71   D(20,15,21,33)       -159.9757         estimate D2E/DX2                !
 ! D72   D(12,18,22,1)          80.9972         estimate D2E/DX2                !
 ! D73   D(12,18,22,4)        -108.7891         estimate D2E/DX2                !
 ! D74   D(23,18,22,1)        -158.4157         estimate D2E/DX2                !
 ! D75   D(23,18,22,4)          11.798          estimate D2E/DX2                !
 ! D76   D(24,18,22,1)         -39.5899         estimate D2E/DX2                !
 ! D77   D(24,18,22,4)         130.6239         estimate D2E/DX2                !
 ! D78   D(12,18,23,4)         109.2563         estimate D2E/DX2                !
 ! D79   D(22,18,23,4)         -11.3306         estimate D2E/DX2                !
 ! D80   D(24,18,23,4)        -130.1566         estimate D2E/DX2                !
 --------------------------------------------------------------------------------
 Trust Radius=3.00D-01 FncErr=1.00D-07 GrdErr=1.00D-07
 Number of steps in this run=    439 maximum allowed number of steps=    672.
 GradGradGradGradGradGradGradGradGradGradGradGradGradGradGradGradGradGrad

 Leave Link  103 at Mon Dec  3 12:47:41 2018, MaxMem=   402653184 cpu:         0.0
 (Enter /usr/local/apps/eb/gaussian/09-Intel-SSE4_2/g09/l202.exe)
 Symmetry turned off by external request.
 Stoichiometry    C52H54N2OP2Ru
 Framework group  C1[X(C52H54N2OP2Ru)]
 Deg. of freedom   330
 Full point group                 C1      NOp   1
                          Input orientation:                          
 ---------------------------------------------------------------------
 Center     Atomic      Atomic             Coordinates (Angstroms)
 Number     Number       Type             X           Y           Z
 ---------------------------------------------------------------------
      1          1           0       -2.883660    0.607910   -2.971110
      2          6           0       -2.073140    1.307050   -3.183180
      3          6           0       -1.868270    2.237260   -1.992700
      4          8           0       -2.867080    2.525850   -1.277400
      5          1           0       -0.935160    2.621700   -1.777010
      6          1           0       -1.177820    0.745690   -3.458920
      7          1           0       -2.381170    1.914390   -4.045550
      8          1           0       -0.917340    1.178930   -1.096270
      9          1           0       -1.061560   -1.372130    1.252440
     10          7           0       -2.576180    0.824150    0.990010
     11          7           0       -2.546940   -1.141180   -0.902720
     12          6           0       -3.819330    0.320610    0.369260
     13          1           0       -2.656810    0.767240    2.003450
     14          1           0       -2.457480    1.816670    0.741850
     15          6           0       -3.838730   -0.943780   -0.205870
     16          1           0       -2.650980   -0.871140   -1.879220
     17          1           0       -2.325060   -2.134600   -0.924060
     18          6           0       -4.202359    1.320324   -0.737417
     19          6           0       -4.785965    0.187241    1.560353
     20          6           0       -5.010636   -1.067609   -1.196918
     21          6           0       -4.014119   -2.014334    0.886845
     22          1           0       -3.518538    1.205685   -1.604971
     23          1           0       -4.126530    2.359281   -0.352450
     24          1           0       -5.244850    1.134223   -1.072047
     25          1           0       -4.923318    1.174842    2.049415
     26          1           0       -4.375897   -0.529670    2.302825
     27          1           0       -5.772483   -0.181926    1.208363
     28          1           0       -5.286103   -2.135648   -1.326576
     29          1           0       -4.719297   -0.647398   -2.182781
     30          1           0       -5.891890   -0.511225   -0.813216
     31          1           0       -3.662647   -2.999095    0.512527
     32          1           0       -5.085207   -2.096306    1.168683
     33          1           0       -3.424008   -1.738138    1.786225
     34         44           0       -0.858520   -0.179250    0.138890
     35         15           0        0.671530   -1.524150   -0.878080
     36         15           0        0.716250    0.744740    1.483710
     37          6           0       -0.221230   -3.073830   -1.361880
     38          6           0        1.572230   -1.106760   -2.432840
     39          6           0        2.142140   -2.052820    0.124760
     40          6           0        0.138090    2.266770    2.369760
     41          6           0        1.506950   -0.179600    2.876260
     42          6           0        2.199760    1.260950    0.500160
     43          6           0        3.098960   -1.116060    0.498490
     44          6           0        2.266610   -3.393720    0.572540
     45          6           0        3.090900    0.310060    0.020310
     46          6           0        2.294900    2.605390    0.051060
     47          6           0        4.178720   -1.508460    1.361720
     48          6           0        3.273020   -3.777030    1.415410
     49          1           0        1.555010   -4.139960    0.241230
     50          6           0        4.080450    0.691500   -0.949460
     51          6           0        3.247060    2.988520   -0.851250
     52          1           0        1.600210    3.348380    0.427370
     53          6           0        4.245820   -2.843600    1.845220
     54          6           0        5.186030   -0.596400    1.786440
     55          1           0        3.340660   -4.807330    1.755530
     56          6           0        4.156680    2.043000   -1.384850
     57          6           0        4.982110   -0.246050   -1.526060
     58          1           0        3.307950    4.023500   -1.176420
     59          6           0        5.284600   -3.220980    2.737620
     60          6           0        6.186540   -0.989490    2.638440
     61          1           0        5.154680    0.432290    1.445770
     62          6           0        5.120030    2.417950   -2.357910
     63          6           0        5.900200    0.141490   -2.469570
     64          1           0        4.930300   -1.288110   -1.230130
     65          6           0        6.237120   -2.315710    3.127400
     66          1           0        5.310120   -4.245230    3.101160
     67          1           0        6.940200   -0.272440    2.951260
     68          6           0        5.976070    1.489140   -2.891220
     69          1           0        5.158980    3.456780   -2.676590
     70          1           0        6.569680   -0.595900   -2.903340
     71          1           0        7.030060   -2.611470    3.808330
     72          1           0        6.707350    1.781520   -3.639260
     73          6           0       -0.565570   -3.318150   -2.695910
     74          6           0       -0.803340   -3.882890   -0.372110
     75          6           0       -1.447420   -4.345820   -3.032750
     76          1           0       -0.162600   -2.697030   -3.489170
     77          6           0       -1.671730   -4.916750   -0.707860
     78          1           0       -0.604000   -3.684250    0.676570
     79          6           0       -2.000220   -5.151090   -2.042810
     80          1           0       -1.702710   -4.509520   -4.075980
     81          1           0       -2.104870   -5.529500    0.077660
     82          1           0       -2.688250   -5.949440   -2.305410
     83          6           0        2.354640   -2.063510   -3.094640
     84          6           0        1.561030    0.202170   -2.905590
     85          6           0        3.083350   -1.718050   -4.226670
     86          1           0        2.395300   -3.085150   -2.724080
     87          6           0        2.306990    0.556450   -4.029960
     88          1           0        0.995520    0.952340   -2.360120
     89          6           0        3.060710   -0.403580   -4.696430
     90          1           0        3.681500   -2.469040   -4.735120
     91          1           0        2.314000    1.587160   -4.373050
     92          1           0        3.644530   -0.128450   -5.570380
     93          6           0        0.301010    2.506100    3.739150
     94          6           0       -0.611300    3.185400    1.624790
     95          6           0       -0.247700    3.641780    4.333640
     96          1           0        0.848640    1.808870    4.362560
     97          6           0       -1.146290    4.327550    2.210950
     98          1           0       -0.780390    2.989370    0.572120
     99          6           0       -0.965740    4.559710    3.572830
    100          1           0       -0.110770    3.804870    5.399050
    101          1           0       -1.714150    5.030090    1.607030
    102          1           0       -1.389920    5.444650    4.038780
    103          6           0        2.626310    0.360620    3.522900
    104          6           0        1.014500   -1.410940    3.311330
    105          6           0        3.235700   -0.312410    4.576410
    106          1           0        3.035550    1.312690    3.193950
    107          6           0        1.634580   -2.097240    4.354180
    108          1           0        0.152970   -1.844290    2.812940
    109          6           0        2.746990   -1.550710    4.988730
    110          1           0        4.107000    0.119920    5.059760
    111          1           0        1.248690   -3.064110    4.665660
    112          1           0        3.233230   -2.086850    5.798880
 ---------------------------------------------------------------------
 Rotational constants (GHZ):      0.0579592      0.0443665      0.0400062
 Leave Link  202 at Mon Dec  3 12:47:41 2018, MaxMem=   402653184 cpu:         0.0
 (Enter /usr/local/apps/eb/gaussian/09-Intel-SSE4_2/g09/l301.exe)
 Standard basis: VSTO-6G (5D, 7F)
 Ernie: Thresh=  0.10000D-02 Tol=  0.10000D-05 Strict=F.
  NNHCO=     0 NNPyr=     0 NCTC=     0               EPep=         0.000000000
    EC=      4318.456550424  ECS=        24.885500364   EG=         2.717248190
   EHC=         0.004248157  EAt=      -283.131829042  AtH=        19.588528319
 EPDDG=         0.000000000  ECC=      4346.063547134 EAtT=       302.720357361
   301 basis functions,  1824 primitive gaussians,   304 cartesian basis functions
   148 alpha electrons      148 beta electrons
       nuclear repulsion energy      4648.7839044957 Hartrees.
 IExCor=    0 DFT=F Ex=HF Corr=None ExCW=0 ScaHFX=  1.000000
 ScaDFX=  1.000000  1.000000  1.000000  1.000000 ScalE2=  1.000000  1.000000
 IRadAn=      0 IRanWt=     -1 IRanGd=            0 ICorTp=0 IEmpDi=  4
 Integral buffers will be    131072 words long.
 Regular integral format.
 Two-electron integral symmetry is turned off.
 Leave Link  301 at Mon Dec  3 12:47:41 2018, MaxMem=   402653184 cpu:         0.1
 (Enter /usr/local/apps/eb/gaussian/09-Intel-SSE4_2/g09/l302.exe)
 Do NDO integrals.
 NPDir=0 NMtPBC=     1 NCelOv=     1 NCel=       1 NClECP=     1 NCelD=      1
         NCelK=      1 NCelE2=     1 NClLst=     1 CellRange=     0.0.
 One-electron integrals computed using PRISM.
 NBasis=   301 RedAO= F EigKep=  0.00D+00  NBF=   301
 NBsUse=   301 1.00D-04 EigRej=  0.00D+00 NBFU=   301
 Leave Link  302 at Mon Dec  3 12:47:41 2018, MaxMem=   402653184 cpu:         0.4
 (Enter /usr/local/apps/eb/gaussian/09-Intel-SSE4_2/g09/l303.exe)
 DipDrv:  MaxL=1.
 Leave Link  303 at Mon Dec  3 12:47:41 2018, MaxMem=   402653184 cpu:         0.0
 (Enter /usr/local/apps/eb/gaussian/09-Intel-SSE4_2/g09/l401.exe)
 Nonelectrostatic core Hamiltonian diagonalized for initial guess.
 JPrj=0 DoOrth=F DoCkMO=F.
 Leave Link  401 at Mon Dec  3 12:47:41 2018, MaxMem=   402653184 cpu:         0.1
 (Enter /usr/local/apps/eb/gaussian/09-Intel-SSE4_2/g09/l502.exe)
 Closed shell SCF:
 Using DIIS extrapolation, IDIIS=  1040.
 Overlap will be assumed to be unity.
 Two-electron integral symmetry not used.
 Keep J ints in memory in canonical form, NReq=2498771.
 IVT=      358561 IEndB=      358561 NGot=   402653184 MDV=   402021194
 LenX=   402021194 LenY=   401928337
 Requested convergence on RMS density matrix=1.00D-08 within 128 cycles.
 Requested convergence on MAX density matrix=1.00D-06.
 Requested convergence on             energy=1.00D-06.
 No special actions if energy rises.
 FoFCou: FMM=F IPFlag=           0 FMFlag=           0 FMFlg1=           0
         NFxFlg=           0 DoJE=F BraDBF=F KetDBF=F FulRan=T
         wScrn=  0.000000 ICntrl=     600 IOpCl=  2 I1Cent=           0 NGrid=           0
         NMat0=    1 NMatS0=    739 NMatT0=    0 NMatD0=    1 NMtDS0=    0 NMtDT0=    0
 Symmetry not used in FoFCou.

 Cycle   1  Pass 1  IDiag  1:
 E=  6.32029345044430    
 DIIS: error= 7.61D-02 at cycle   1 NSaved=   1.
 NSaved= 1 IEnMin= 1 EnMin=  6.32029345044430     IErMin= 1 ErrMin= 7.61D-02
 ErrMax= 7.61D-02  0.00D+00 EMaxC= 1.00D-01 BMatC= 1.28D+00 BMatP= 1.28D+00
 IDIUse=3 WtCom= 2.39D-01 WtEn= 7.61D-01
 Coeff-Com:  0.100D+01
 Coeff-En:   0.100D+01
 Coeff:      0.100D+01
 GapD=    2.000 DampG=2.000 DampE=0.250 DampFc=0.5000 IDamp=-1.
 Damping current iteration by 5.00D-01
 RMSDP=1.66D-02 MaxDP=7.85D-01              OVMax= 0.00D+00

 Cycle   2  Pass 1  IDiag  1:
 E=  15.7750905631210     Delta-E=        9.454797112677 Rises=F Damp=T
 DIIS: error= 5.92D-02 at cycle   2 NSaved=   2.
 NSaved= 2 IEnMin= 1 EnMin=  6.32029345044430     IErMin= 2 ErrMin= 5.92D-02
 ErrMax= 5.92D-02  0.00D+00 EMaxC= 1.00D-01 BMatC= 1.56D+00 BMatP= 1.28D+00
 IDIUse=2 WtCom= 0.00D+00 WtEn= 1.00D+00
 Coeff-En:   0.838D+00 0.162D+00
 Coeff:      0.838D+00 0.162D+00
 RMSDP=8.32D-03 MaxDP=3.66D-01 DE= 9.45D+00 OVMax= 0.00D+00

 Cycle   3  Pass 1  IDiag  1:
 E=  2.30921454272993     Delta-E=      -13.465876020391 Rises=F Damp=F
 DIIS: error= 4.06D-02 at cycle   3 NSaved=   3.
 NSaved= 3 IEnMin= 3 EnMin=  2.30921454272993     IErMin= 3 ErrMin= 4.06D-02
 ErrMax= 4.06D-02  0.00D+00 EMaxC= 1.00D-01 BMatC= 3.47D-01 BMatP= 1.28D+00
 IDIUse=3 WtCom= 5.94D-01 WtEn= 4.06D-01
 Coeff-Com:  0.193D+00-0.883D-01 0.896D+00
 Coeff-En:   0.000D+00 0.000D+00 0.100D+01
 Coeff:      0.114D+00-0.524D-01 0.938D+00
 RMSDP=5.34D-03 MaxDP=3.34D-01 DE=-1.35D+01 OVMax= 0.00D+00

 Cycle   4  Pass 1  IDiag  1:
 E=  1.37897469108248     Delta-E=       -0.930239851647 Rises=F Damp=F
 DIIS: error= 2.15D-02 at cycle   4 NSaved=   4.
 NSaved= 4 IEnMin= 4 EnMin=  1.37897469108248     IErMin= 4 ErrMin= 2.15D-02
 ErrMax= 2.15D-02  0.00D+00 EMaxC= 1.00D-01 BMatC= 8.54D-02 BMatP= 3.47D-01
 IDIUse=3 WtCom= 7.85D-01 WtEn= 2.15D-01
 Coeff-Com: -0.101D+00-0.368D-01 0.277D+00 0.861D+00
 Coeff-En:   0.000D+00 0.000D+00 0.000D+00 0.100D+01
 Coeff:     -0.793D-01-0.289D-01 0.217D+00 0.891D+00
 RMSDP=2.36D-03 MaxDP=1.82D-01 DE=-9.30D-01 OVMax= 0.00D+00

 Cycle   5  Pass 1  IDiag  1:
 E=  1.11062923904319     Delta-E=       -0.268345452039 Rises=F Damp=F
 DIIS: error= 6.69D-03 at cycle   5 NSaved=   5.
 NSaved= 5 IEnMin= 5 EnMin=  1.11062923904319     IErMin= 5 ErrMin= 6.69D-03
 ErrMax= 6.69D-03  0.00D+00 EMaxC= 1.00D-01 BMatC= 1.02D-02 BMatP= 8.54D-02
 IDIUse=3 WtCom= 9.33D-01 WtEn= 6.69D-02
 Coeff-Com: -0.217D-01-0.189D-01-0.991D-01 0.374D-01 0.110D+01
 Coeff-En:   0.000D+00 0.000D+00 0.000D+00 0.000D+00 0.100D+01
 Coeff:     -0.203D-01-0.176D-01-0.925D-01 0.349D-01 0.110D+01
 RMSDP=8.68D-04 MaxDP=3.29D-02 DE=-2.68D-01 OVMax= 0.00D+00

 Cycle   6  Pass 1  IDiag  3:
 E=  1.06892326182788     Delta-E=       -0.041705977215 Rises=F Damp=F
 DIIS: error= 2.53D-03 at cycle   6 NSaved=   6.
 NSaved= 6 IEnMin= 6 EnMin=  1.06892326182788     IErMin= 6 ErrMin= 2.53D-03
 ErrMax= 2.53D-03  0.00D+00 EMaxC= 1.00D-01 BMatC= 1.18D-03 BMatP= 1.02D-02
 IDIUse=3 WtCom= 9.75D-01 WtEn= 2.53D-02
 Coeff-Com:  0.130D-01-0.401D-02-0.158D-01-0.568D-01-0.131D+00 0.119D+01
 Coeff-En:   0.000D+00 0.000D+00 0.000D+00 0.000D+00 0.000D+00 0.100D+01
 Coeff:      0.127D-01-0.391D-02-0.154D-01-0.553D-01-0.127D+00 0.119D+01
 Gap=     0.169 Goal=   None    Shift=    0.000
 RMSDP=3.79D-04 MaxDP=1.98D-02 DE=-4.17D-02 OVMax= 1.62D-02

 Cycle   7  Pass 1  IDiag  3:
 E=  1.06230249945656     Delta-E=       -0.006620762371 Rises=F Damp=F
 DIIS: error= 1.12D-03 at cycle   7 NSaved=   7.
 NSaved= 7 IEnMin= 7 EnMin=  1.06230249945656     IErMin= 7 ErrMin= 1.12D-03
 ErrMax= 1.12D-03  0.00D+00 EMaxC= 1.00D-01 BMatC= 2.35D-04 BMatP= 1.18D-03
 IDIUse=3 WtCom= 9.89D-01 WtEn= 1.12D-02
 Coeff-Com:  0.307D-02 0.348D-03 0.108D-01 0.101D-01-0.101D+00-0.305D+00
 Coeff-Com:  0.138D+01
 Coeff-En:   0.000D+00 0.000D+00 0.000D+00 0.000D+00 0.000D+00 0.000D+00
 Coeff-En:   0.100D+01
 Coeff:      0.303D-02 0.344D-03 0.106D-01 0.998D-02-0.996D-01-0.301D+00
 Coeff:      0.138D+01
 Gap=     0.165 Goal=   None    Shift=    0.000
 RMSDP=2.13D-04 MaxDP=1.05D-02 DE=-6.62D-03 OVMax= 1.13D-02

 Cycle   8  Pass 1  IDiag  3:
 E=  1.06072882962781     Delta-E=       -0.001573669829 Rises=F Damp=F
 DIIS: error= 4.33D-04 at cycle   8 NSaved=   8.
 NSaved= 8 IEnMin= 8 EnMin=  1.06072882962781     IErMin= 8 ErrMin= 4.33D-04
 ErrMax= 4.33D-04  0.00D+00 EMaxC= 1.00D-01 BMatC= 3.16D-05 BMatP= 2.35D-04
 IDIUse=3 WtCom= 9.96D-01 WtEn= 4.33D-03
 Coeff-Com: -0.116D-02 0.455D-03 0.132D-03 0.340D-02 0.328D-01-0.156D+00
 Coeff-Com: -0.829D-01 0.120D+01
 Coeff-En:   0.000D+00 0.000D+00 0.000D+00 0.000D+00 0.000D+00 0.000D+00
 Coeff-En:   0.000D+00 0.100D+01
 Coeff:     -0.115D-02 0.453D-03 0.131D-03 0.338D-02 0.326D-01-0.155D+00
 Coeff:     -0.825D-01 0.120D+01
 Gap=     0.167 Goal=   None    Shift=    0.000
 RMSDP=8.19D-05 MaxDP=3.64D-03 DE=-1.57D-03 OVMax= 4.04D-03

 Cycle   9  Pass 1  IDiag  3:
 E=  1.06051464799293     Delta-E=       -0.000214181635 Rises=F Damp=F
 DIIS: error= 1.80D-04 at cycle   9 NSaved=   9.
 NSaved= 9 IEnMin= 9 EnMin=  1.06051464799293     IErMin= 9 ErrMin= 1.80D-04
 ErrMax= 1.80D-04  0.00D+00 EMaxC= 1.00D-01 BMatC= 5.16D-06 BMatP= 3.16D-05
 IDIUse=3 WtCom= 9.98D-01 WtEn= 1.80D-03
 Coeff-Com: -0.669D-03 0.494D-03 0.535D-03-0.833D-03-0.634D-03 0.387D-01
 Coeff-Com: -0.117D+00-0.105D+00 0.118D+01
 Coeff-En:   0.000D+00 0.000D+00 0.000D+00 0.000D+00 0.000D+00 0.000D+00
 Coeff-En:   0.000D+00 0.000D+00 0.100D+01
 Coeff:     -0.668D-03 0.493D-03 0.534D-03-0.831D-03-0.633D-03 0.387D-01
 Coeff:     -0.116D+00-0.105D+00 0.118D+01
 Gap=     0.167 Goal=   None    Shift=    0.000
 RMSDP=3.04D-05 MaxDP=1.04D-03 DE=-2.14D-04 OVMax= 1.53D-03

 Cycle  10  Pass 1  IDiag  3:
 E=  1.06048243807072     Delta-E=       -0.000032209922 Rises=F Damp=F
 DIIS: error= 8.64D-05 at cycle  10 NSaved=  10.
 NSaved=10 IEnMin=10 EnMin=  1.06048243807072     IErMin=10 ErrMin= 8.64D-05
 ErrMax= 8.64D-05  0.00D+00 EMaxC= 1.00D-01 BMatC= 1.50D-06 BMatP= 5.16D-06
 IDIUse=1 WtCom= 1.00D+00 WtEn= 0.00D+00
 Coeff-Com: -0.855D-04 0.286D-03 0.538D-03-0.513D-03-0.658D-02 0.699D-02
 Coeff-Com:  0.568D-01-0.144D+00-0.273D+00 0.136D+01
 Coeff:     -0.855D-04 0.286D-03 0.538D-03-0.513D-03-0.658D-02 0.699D-02
 Coeff:      0.568D-01-0.144D+00-0.273D+00 0.136D+01
 Gap=     0.167 Goal=   None    Shift=    0.000
 RMSDP=1.68D-05 MaxDP=4.67D-04 DE=-3.22D-05 OVMax= 8.78D-04

 Cycle  11  Pass 1  IDiag  3:
 E=  1.06047215918625     Delta-E=       -0.000010278884 Rises=F Damp=F
 DIIS: error= 3.81D-05 at cycle  11 NSaved=  11.
 NSaved=11 IEnMin=11 EnMin=  1.06047215918625     IErMin=11 ErrMin= 3.81D-05
 ErrMax= 3.81D-05  0.00D+00 EMaxC= 1.00D-01 BMatC= 4.16D-07 BMatP= 1.50D-06
 IDIUse=1 WtCom= 1.00D+00 WtEn= 0.00D+00
 Coeff-Com:  0.745D-05 0.752D-04-0.145D-03-0.999D-04 0.108D-02-0.628D-02
 Coeff-Com:  0.114D-01 0.341D-01-0.123D+00-0.386D+00 0.147D+01
 Coeff:      0.745D-05 0.752D-04-0.145D-03-0.999D-04 0.108D-02-0.628D-02
 Coeff:      0.114D-01 0.341D-01-0.123D+00-0.386D+00 0.147D+01
 Gap=     0.168 Goal=   None    Shift=    0.000
 RMSDP=1.20D-05 MaxDP=3.88D-04 DE=-1.03D-05 OVMax= 6.27D-04

 Cycle  12  Pass 1  IDiag  3:
 E=  1.06046801089451     Delta-E=       -0.000004148292 Rises=F Damp=F
 DIIS: error= 2.08D-05 at cycle  12 NSaved=  12.
 NSaved=12 IEnMin=12 EnMin=  1.06046801089451     IErMin=12 ErrMin= 2.08D-05
 ErrMax= 2.08D-05  0.00D+00 EMaxC= 1.00D-01 BMatC= 1.27D-07 BMatP= 4.16D-07
 IDIUse=1 WtCom= 1.00D+00 WtEn= 0.00D+00
 Coeff-Com: -0.746D-05-0.786D-05-0.642D-04 0.158D-03 0.324D-03 0.143D-02
 Coeff-Com: -0.128D-01 0.137D-01 0.832D-01-0.170D+00-0.454D+00 0.154D+01
 Coeff:     -0.746D-05-0.786D-05-0.642D-04 0.158D-03 0.324D-03 0.143D-02
 Coeff:     -0.128D-01 0.137D-01 0.832D-01-0.170D+00-0.454D+00 0.154D+01
 Gap=     0.168 Goal=   None    Shift=    0.000
 RMSDP=8.65D-06 MaxDP=3.32D-04 DE=-4.15D-06 OVMax= 5.14D-04

 Cycle  13  Pass 1  IDiag  3:
 E=  1.06046626736224     Delta-E=       -0.000001743532 Rises=F Damp=F
 DIIS: error= 1.33D-05 at cycle  13 NSaved=  13.
 NSaved=13 IEnMin=13 EnMin=  1.06046626736224     IErMin=13 ErrMin= 1.33D-05
 ErrMax= 1.33D-05  0.00D+00 EMaxC= 1.00D-01 BMatC= 4.98D-08 BMatP= 1.27D-07
 IDIUse=1 WtCom= 1.00D+00 WtEn= 0.00D+00
 Coeff-Com:  0.122D-04-0.318D-04-0.164D-04 0.532D-04-0.171D-04 0.523D-03
 Coeff-Com: -0.695D-03-0.390D-02 0.556D-02 0.843D-01-0.222D+00-0.426D+00
 Coeff-Com:  0.156D+01
 Coeff:      0.122D-04-0.318D-04-0.164D-04 0.532D-04-0.171D-04 0.523D-03
 Coeff:     -0.695D-03-0.390D-02 0.556D-02 0.843D-01-0.222D+00-0.426D+00
 Coeff:      0.156D+01
 Gap=     0.168 Goal=   None    Shift=    0.000
[...]
 Iteration 11 RMS(Cart)=  0.00652842 RMS(Int)=  0.17804002
 Iteration 12 RMS(Cart)=  0.01257809 RMS(Int)=  0.15513949
 Iteration 13 RMS(Cart)=  0.02971836 RMS(Int)=  0.11611156
 Iteration 14 RMS(Cart)=  0.01070330 RMS(Int)=  0.09017454
 Iteration 15 RMS(Cart)=  0.00320668 RMS(Int)=  0.06773211
 Iteration 16 RMS(Cart)=  0.00243253 RMS(Int)=  0.04673120
 Iteration 17 RMS(Cart)=  0.00282949 RMS(Int)=  0.02657686
 Iteration 18 RMS(Cart)=  0.00312745 RMS(Int)=  0.00700458
 Iteration 19 RMS(Cart)=  0.00112758 RMS(Int)=  0.00121201
 Iteration 20 RMS(Cart)=  0.00000197 RMS(Int)=  0.00121198
 New curvilinear step failed, DQL= 1.07D-02 SP=-7.64D-06.
 ITry= 9 IFail=1 DXMaxC= 1.04D+00 DCOld= 1.00D+10 DXMaxT= 1.43D+00 DXLimC= 3.00D+00 Rises=T
 Iteration  1 RMS(Cart)=  0.02805085 RMS(Int)=  0.24137740
 Iteration  2 RMS(Cart)=  0.01478409 RMS(Int)=  0.23026749
 Iteration  3 RMS(Cart)=  0.00963165 RMS(Int)=  0.22323711
 Iteration  4 RMS(Cart)=  0.00793990 RMS(Int)=  0.21731120
 Iteration  5 RMS(Cart)=  0.00680280 RMS(Int)=  0.21211192
 Iteration  6 RMS(Cart)=  0.00610853 RMS(Int)=  0.20727075
 Iteration  7 RMS(Cart)=  0.00573032 RMS(Int)=  0.20254997
 Iteration  8 RMS(Cart)=  0.00551249 RMS(Int)=  0.19773883
 Iteration  9 RMS(Cart)=  0.00543446 RMS(Int)=  0.19257188
 Iteration 10 RMS(Cart)=  0.00559886 RMS(Int)=  0.18655311
 Iteration 11 RMS(Cart)=  0.00652842 RMS(Int)=  0.17804002
 Iteration 12 RMS(Cart)=  0.01257809 RMS(Int)=  0.15513949
 Iteration 13 RMS(Cart)=  0.02971836 RMS(Int)=  0.11611156
 Iteration 14 RMS(Cart)=  0.01070330 RMS(Int)=  0.09017454
 Iteration 15 RMS(Cart)=  0.00320668 RMS(Int)=  0.06773211
 Iteration 16 RMS(Cart)=  0.00243253 RMS(Int)=  0.04673120
 Iteration 17 RMS(Cart)=  0.00282949 RMS(Int)=  0.02657686
 Iteration 18 RMS(Cart)=  0.00312745 RMS(Int)=  0.00700458
 Iteration 19 RMS(Cart)=  0.00112758 RMS(Int)=  0.00121201
 Iteration 20 RMS(Cart)=  0.00000197 RMS(Int)=  0.00121198
 New curvilinear step failed, DQL= 1.07D-02 SP=-7.64D-06.
 ITry=10 IFail=1 DXMaxC= 1.04D+00 DCOld= 1.00D+10 DXMaxT= 1.43D+00 DXLimC= 3.00D+00 Rises=T
 RedQX1 iteration     1 Try  1 RMS(Cart)=  0.03084625 RMS(Int)=  0.20185142 XScale=  4.18727765
 RedQX1 iteration     1 Try  2 RMS(Cart)=  0.03082093 RMS(Int)=  0.14339174 XScale=  2.16003858
 RedQX1 iteration     1 Try  3 RMS(Cart)=  0.03106851 RMS(Int)=  0.10254345 XScale=  1.61488455
 RedQX1 iteration     1 Try  4 RMS(Cart)=  0.03237608 RMS(Int)=  0.07322917 XScale=  1.34670175
 RedQX1 iteration     1 Try  5 RMS(Cart)=  0.03815076 RMS(Int)=  0.05515794 XScale=  1.16220626
 RedQX1 iteration     1 Try  6 RMS(Cart)=  0.01757393 RMS(Int)=  0.05070348 XScale=  1.12520373
 RedQX1 iteration     2 Try  1 RMS(Cart)=  0.00205279 RMS(Int)=  0.05036563 XScale=  1.12415618
 RedQX1 iteration     2 Try  2 RMS(Cart)=  0.00223526 RMS(Int)=  0.05017163 XScale=  1.12320582
 RedQX1 iteration     2 Try  3 RMS(Cart)=  0.00253103 RMS(Int)=  0.05021220 XScale=  1.12224834
 RedQX1 iteration     2 Try  4 RMS(Cart)=  0.00312056 RMS(Int)=  0.05072277 XScale=  1.12091144
 RedQX1 iteration     2 Try  5 RMS(Cart)=  0.00496212 RMS(Int)=  0.05271494 XScale=  1.11731464
 RedQX1 iteration     2 Try  6 RMS(Cart)=  0.00409932 RMS(Int)=  0.05543457 XScale=  1.11031768
 RedQX1 iteration     3 Try  1 RMS(Cart)=  0.00073913 RMS(Int)=  0.05602056 XScale=  1.10864915
 RedQX1 iteration     3 Try  2 RMS(Cart)=  0.00090781 RMS(Int)=  0.05676740 XScale=  1.10664514
 RedQX1 iteration     3 Try  3 RMS(Cart)=  0.00119017 RMS(Int)=  0.05778508 XScale=  1.10409849
 RedQX1 iteration     3 Try  4 RMS(Cart)=  0.00175680 RMS(Int)=  0.05935217 XScale=  1.10049731
 RedQX1 iteration     3 Try  5 RMS(Cart)=  0.00346110 RMS(Int)=  0.06260852 XScale=  1.09380884
 RedQX1 iteration     3 Try  6 RMS(Cart)=  0.00342161 RMS(Int)=  0.06596919 XScale=  1.08764936
 RedQX1 iteration     4 Try  1 RMS(Cart)=  0.00068317 RMS(Int)=  0.06664565 XScale=  1.08639877
 RedQX1 iteration     4 Try  2 RMS(Cart)=  0.00085345 RMS(Int)=  0.06749542 XScale=  1.08482045
 RedQX1 iteration     4 Try  3 RMS(Cart)=  0.00113748 RMS(Int)=  0.06863543 XScale=  1.08269104
 RedQX1 iteration     4 Try  4 RMS(Cart)=  0.00170633 RMS(Int)=  0.07035988 XScale=  1.07944798
 RedQX1 iteration     4 Try  5 RMS(Cart)=  0.00341725 RMS(Int)=  0.07385931 XScale=  1.07282063
 RedQX1 iteration     4 Try  6 RMS(Cart)=  0.00344526 RMS(Int)=  0.07740129 XScale=  1.06589951
 RedQX1 iteration     5 Try  1 RMS(Cart)=  0.00069487 RMS(Int)=  0.07810934 XScale=  1.06447368
 RedQX1 iteration     5 Try  2 RMS(Cart)=  0.00086885 RMS(Int)=  0.07899583 XScale=  1.06268763
 RedQX1 iteration     5 Try  3 RMS(Cart)=  0.00115920 RMS(Int)=  0.08018035 XScale=  1.06029940
 RedQX1 iteration     5 Try  4 RMS(Cart)=  0.00174111 RMS(Int)=  0.08196274 XScale=  1.05670213
 RedQX1 iteration     5 Try  5 RMS(Cart)=  0.00349304 RMS(Int)=  0.08554989 XScale=  1.04945957
 RedQX1 iteration     5 Try  6 RMS(Cart)=  0.00353371 RMS(Int)=  0.08915120 XScale=  1.04207011
 RedQX1 iteration     6 Try  1 RMS(Cart)=  0.00071430 RMS(Int)=  0.08986837 XScale=  1.04056645
 RedQX1 iteration     6 Try  2 RMS(Cart)=  0.00089328 RMS(Int)=  0.09076459 XScale=  1.03868583
 RedQX1 iteration     6 Try  3 RMS(Cart)=  0.00119204 RMS(Int)=  0.09195933 XScale=  1.03617645
 RedQX1 iteration     6 Try  4 RMS(Cart)=  0.00179092 RMS(Int)=  0.09375147 XScale=  1.03240843
 RedQX1 iteration     6 Try  5 RMS(Cart)=  0.00359448 RMS(Int)=  0.09733995 XScale=  1.02486224
 RedQX1 iteration     6 Try  6 RMS(Cart)=  0.00363938 RMS(Int)=  0.10092183 XScale=  1.01724890
 RedQX1 iteration     7 Try  1 RMS(Cart)=  0.00073557 RMS(Int)=  0.10163269 XScale=  1.01571631
 RedQX1 iteration     7 Try  2 RMS(Cart)=  0.00091969 RMS(Int)=  0.10251985 XScale=  1.01380304
 RedQX1 iteration     7 Try  3 RMS(Cart)=  0.00122697 RMS(Int)=  0.10370053 XScale=  1.01125597
 RedQX1 iteration     7 Try  4 RMS(Cart)=  0.00184278 RMS(Int)=  0.10546760 XScale=  1.00744320
 RedQX1 iteration     7 Try  5 RMS(Cart)=  0.00369668 RMS(Int)=  0.10899291 XScale=  0.99984371
 RedQX1 iteration     7 Try  6 RMS(Cart)=  0.00373879 RMS(Int)=  0.11249464 XScale=  0.99224880
 RedQX1 iteration     8 Try  1 RMS(Cart)=  0.00074776 RMS(Int)=  0.10969168 XScale=  0.99832045
 RedQX1 iteration     9 Try  1 RMS(Cart)=  0.00014955 RMS(Int)=  0.10913260 XScale=  0.99953889
 RedQX1 iteration     9 Try  2 RMS(Cart)=  0.00015578 RMS(Int)=  0.10927802 XScale=  0.99922151
 RedQX1 iteration     9 Try  3 RMS(Cart)=  0.00016254 RMS(Int)=  0.10942970 XScale=  0.99889049
 RedQX1 iteration    10 Try  1 RMS(Cart)=  0.00014954 RMS(Int)=  0.10941756 XScale=  0.99891697
 RedQX1 iteration    11 Try  1 RMS(Cart)=  0.00002991 RMS(Int)=  0.10930593 XScale=  0.99916059
 RedQX1 iteration    11 Try  2 RMS(Cart)=  0.00003015 RMS(Int)=  0.10933406 XScale=  0.99909919
 RedQX1 iteration    11 Try  3 RMS(Cart)=  0.00003039 RMS(Int)=  0.10936241 XScale=  0.99903730
 RedQX1 iteration    11 Try  4 RMS(Cart)=  0.00003064 RMS(Int)=  0.10939099 XScale=  0.99897491
 RedQX1 iteration    12 Try  1 RMS(Cart)=  0.00002991 RMS(Int)=  0.10939030 XScale=  0.99897640
 RedQX1 iteration    13 Try  1 RMS(Cart)=  0.00000598 RMS(Int)=  0.10936799 XScale=  0.99902512
 RedQX1 iteration    13 Try  2 RMS(Cart)=  0.00000599 RMS(Int)=  0.10937358 XScale=  0.99901292
 RedQX1 iteration    13 Try  3 RMS(Cart)=  0.00000600 RMS(Int)=  0.10937917 XScale=  0.99900070
 RedQX1 iteration    13 Try  4 RMS(Cart)=  0.00000601 RMS(Int)=  0.10938478 XScale=  0.99898846
 RedQX1 iteration    14 Try  1 RMS(Cart)=  0.00000598 RMS(Int)=  0.10938475 XScale=  0.99898852
 RedQX1 iteration    15 Try  1 RMS(Cart)=  0.00000120 RMS(Int)=  0.10938029 XScale=  0.99899827
 RedQX1 iteration    16 Try  1 RMS(Cart)=  0.00000024 RMS(Int)=  0.10937939 XScale=  0.99900022
 RedQX1 iteration    16 Try  2 RMS(Cart)=  0.00000024 RMS(Int)=  0.10937962 XScale=  0.99899973
 RedQX1 iteration    17 Try  1 RMS(Cart)=  0.00000024 RMS(Int)=  0.10937962 XScale=  0.99899973
 RedQX1 iteration    18 Try  1 RMS(Cart)=  0.00000005 RMS(Int)=  0.10937944 XScale=  0.99900012
 RedQX1 iteration     1 Try  1 RMS(Cart)=  0.00425954 RMS(Int)=  0.02108274 XScale=  6.19320149
 RedQX1 iteration     1 Try  2 RMS(Cart)=  0.00433030 RMS(Int)=  0.01848362 XScale=  3.10729329
 RedQX1 iteration     1 Try  3 RMS(Cart)=  0.00444446 RMS(Int)=  0.01622633 XScale=  2.07247633
 RedQX1 iteration     1 Try  4 RMS(Cart)=  0.00466504 RMS(Int)=  0.01447040 XScale=  1.54445881
 RedQX1 iteration     1 Try  5 RMS(Cart)=  0.00531587 RMS(Int)=  0.01366623 XScale=  1.20170704
 RedQX1 iteration     1 Try  6 RMS(Cart)=  0.00167155 RMS(Int)=  0.01386050 XScale=  1.16094551
 RedQX1 iteration     2 Try  1 RMS(Cart)=  0.00015929 RMS(Int)=  0.01389893 XScale=  1.15782747
 RedQX1 iteration     2 Try  2 RMS(Cart)=  0.00017484 RMS(Int)=  0.01394519 XScale=  1.15443785
 RedQX1 iteration     2 Try  3 RMS(Cart)=  0.00019819 RMS(Int)=  0.01400279 XScale=  1.15073976
 RedQX1 iteration     2 Try  4 RMS(Cart)=  0.00024032 RMS(Int)=  0.01407982 XScale=  1.14672316
 RedQX1 iteration     2 Try  5 RMS(Cart)=  0.00036569 RMS(Int)=  0.01420669 XScale=  1.14268264
 RedQX1 iteration     2 Try  6 RMS(Cart)=  0.00035211 RMS(Int)=  0.01428381 XScale=  1.14510935
 RedQX1 iteration     3 Try  1 RMS(Cart)=  0.00009058 RMS(Int)=  0.01429375 XScale=  1.14631559
 RedQX1 iteration     3 Try  2 RMS(Cart)=  0.00011668 RMS(Int)=  0.01430635 XScale=  1.14788573
 RedQX1 iteration     3 Try  3 RMS(Cart)=  0.00016090 RMS(Int)=  0.01432374 XScale=  1.15006209
 RedQX1 iteration     3 Try  4 RMS(Cart)=  0.00025090 RMS(Int)=  0.01435180 XScale=  1.15343908
 RedQX1 iteration     3 Try  5 RMS(Cart)=  0.00052608 RMS(Int)=  0.01441847 XScale=  1.16027353
 RedQX1 iteration     3 Try  6 RMS(Cart)=  0.00056262 RMS(Int)=  0.01449850 XScale=  1.16726962
 RedQX1 iteration     4 Try  1 RMS(Cart)=  0.00011530 RMS(Int)=  0.01451593 XScale=  1.16866222
 RedQX1 iteration     4 Try  2 RMS(Cart)=  0.00014409 RMS(Int)=  0.01453879 XScale=  1.17036287
 RedQX1 iteration     4 Try  3 RMS(Cart)=  0.00019194 RMS(Int)=  0.01457111 XScale=  1.17255758
 RedQX1 iteration     4 Try  4 RMS(Cart)=  0.00028726 RMS(Int)=  0.01462353 XScale=  1.17568523
 RedQX1 iteration     4 Try  5 RMS(Cart)=  0.00057154 RMS(Int)=  0.01474261 XScale=  1.18131309
 RedQX1 iteration     4 Try  6 RMS(Cart)=  0.00056316 RMS(Int)=  0.01487738 XScale=  1.18610424
 RedQX1 iteration     5 Try  1 RMS(Cart)=  0.00010998 RMS(Int)=  0.01490554 XScale=  1.18695489
 RedQX1 iteration     5 Try  2 RMS(Cart)=  0.00013663 RMS(Int)=  0.01494151 XScale=  1.18796721
 RedQX1 iteration     5 Try  3 RMS(Cart)=  0.00018077 RMS(Int)=  0.01499077 XScale=  1.18922986
 RedQX1 iteration     5 Try  4 RMS(Cart)=  0.00026832 RMS(Int)=  0.01506736 XScale=  1.19094070
 RedQX1 iteration     5 Try  5 RMS(Cart)=  0.00052806 RMS(Int)=  0.01523012 XScale=  1.19372470
 RedQX1 iteration     5 Try  6 RMS(Cart)=  0.00051086 RMS(Int)=  0.01540167 XScale=  1.19569317
 RedQX1 iteration     6 Try  1 RMS(Cart)=  0.00009858 RMS(Int)=  0.01543624 XScale=  1.19599333
 RedQX1 iteration     6 Try  2 RMS(Cart)=  0.00012229 RMS(Int)=  0.01547983 XScale=  1.19632751
 RedQX1 iteration     6 Try  3 RMS(Cart)=  0.00016150 RMS(Int)=  0.01553862 XScale=  1.19670386
 RedQX1 iteration     6 Try  4 RMS(Cart)=  0.00023919 RMS(Int)=  0.01562816 XScale=  1.19712482
 RedQX1 iteration     6 Try  5 RMS(Cart)=  0.00046930 RMS(Int)=  0.01581232 XScale=  1.19747450
 RedQX1 iteration     6 Try  6 RMS(Cart)=  0.00045163 RMS(Int)=  0.01599940 XScale=  1.19722933
 RedQX1 iteration     7 Try  1 RMS(Cart)=  0.00008682 RMS(Int)=  0.01603638 XScale=  1.19711937
 RedQX1 iteration     7 Try  2 RMS(Cart)=  0.00010765 RMS(Int)=  0.01608272 XScale=  1.19695359
 RedQX1 iteration     7 Try  3 RMS(Cart)=  0.00014209 RMS(Int)=  0.01614470 XScale=  1.19668496
 RedQX1 iteration     7 Try  4 RMS(Cart)=  0.00021028 RMS(Int)=  0.01623812 XScale=  1.19618357
 RedQX1 iteration     7 Try  5 RMS(Cart)=  0.00041214 RMS(Int)=  0.01642695 XScale=  1.19484244
 RedQX1 iteration     7 Try  6 RMS(Cart)=  0.00039580 RMS(Int)=  0.01661491 XScale=  1.19312291
 RedQX1 iteration     8 Try  1 RMS(Cart)=  0.00007597 RMS(Int)=  0.01665166 XScale=  1.19274689
 RedQX1 iteration     8 Try  2 RMS(Cart)=  0.00009417 RMS(Int)=  0.01669755 XScale=  1.19225933
 RedQX1 iteration     8 Try  3 RMS(Cart)=  0.00012426 RMS(Int)=  0.01675865 XScale=  1.19157980
 RedQX1 iteration     8 Try  4 RMS(Cart)=  0.00018382 RMS(Int)=  0.01685016 XScale=  1.19049945
 RedQX1 iteration     8 Try  5 RMS(Cart)=  0.00036008 RMS(Int)=  0.01703328 XScale=  1.18812560
 RedQX1 iteration     8 Try  6 RMS(Cart)=  0.00034541 RMS(Int)=  0.01721334 XScale=  1.18554177
 RedQX1 iteration     9 Try  1 RMS(Cart)=  0.00006623 RMS(Int)=  0.01724831 XScale=  1.18501404
 RedQX1 iteration     9 Try  2 RMS(Cart)=  0.00008209 RMS(Int)=  0.01729187 XScale=  1.18434484
 RedQX1 iteration     9 Try  3 RMS(Cart)=  0.00010829 RMS(Int)=  0.01734972 XScale=  1.18343653
 RedQX1 iteration     9 Try  4 RMS(Cart)=  0.00016016 RMS(Int)=  0.01743602 XScale=  1.18204050
 RedQX1 iteration     9 Try  5 RMS(Cart)=  0.00031360 RMS(Int)=  0.01760759 XScale=  1.17912684
 RedQX1 iteration     9 Try  6 RMS(Cart)=  0.00030056 RMS(Int)=  0.01777497 XScale=  1.17612179
 RedQX1 iteration    10 Try  1 RMS(Cart)=  0.00005758 RMS(Int)=  0.01780734 XScale=  1.17552387
 RedQX1 iteration    10 Try  2 RMS(Cart)=  0.00007136 RMS(Int)=  0.01784759 XScale=  1.17477244
 RedQX1 iteration    10 Try  3 RMS(Cart)=  0.00009413 RMS(Int)=  0.01790094 XScale=  1.17376369
 RedQX1 iteration    10 Try  4 RMS(Cart)=  0.00013919 RMS(Int)=  0.01798034 XScale=  1.17223580
 RedQX1 iteration    10 Try  5 RMS(Cart)=  0.00027244 RMS(Int)=  0.01813749 XScale=  1.16912115
 RedQX1 iteration    10 Try  6 RMS(Cart)=  0.00026092 RMS(Int)=  0.01828998 XScale=  1.16599299
 RedQX1 iteration    11 Try  1 RMS(Cart)=  0.00004996 RMS(Int)=  0.01831938 XScale=  1.16537904
 RedQX1 iteration    11 Try  2 RMS(Cart)=  0.00006190 RMS(Int)=  0.01835590 XScale=  1.16461113
 RedQX1 iteration    11 Try  3 RMS(Cart)=  0.00008164 RMS(Int)=  0.01840424 XScale=  1.16358635
 RedQX1 iteration    11 Try  4 RMS(Cart)=  0.00012070 RMS(Int)=  0.01847605 XScale=  1.16204657
 RedQX1 iteration    11 Try  5 RMS(Cart)=  0.00023619 RMS(Int)=  0.01861776 XScale=  1.15894889
 RedQX1 iteration    11 Try  6 RMS(Cart)=  0.00022606 RMS(Int)=  0.01875474 XScale=  1.15588563
 RedQX1 iteration    12 Try  1 RMS(Cart)=  0.00004326 RMS(Int)=  0.01878108 XScale=  1.15528936
 RedQX1 iteration    12 Try  2 RMS(Cart)=  0.00005360 RMS(Int)=  0.01881379 XScale=  1.15454571
 RedQX1 iteration    12 Try  3 RMS(Cart)=  0.00007068 RMS(Int)=  0.01885704 XScale=  1.15355689
 RedQX1 iteration    12 Try  4 RMS(Cart)=  0.00010447 RMS(Int)=  0.01892120 XScale=  1.15207845
 RedQX1 iteration    12 Try  5 RMS(Cart)=  0.00020439 RMS(Int)=  0.01904756 XScale=  1.14912862
 RedQX1 iteration    12 Try  6 RMS(Cart)=  0.00019551 RMS(Int)=  0.01916934 XScale=  1.14624031
 RedQX1 iteration    13 Try  1 RMS(Cart)=  0.00003739 RMS(Int)=  0.01919272 XScale=  1.14568112
 RedQX1 iteration    13 Try  2 RMS(Cart)=  0.00004633 RMS(Int)=  0.01922173 XScale=  1.14498503
 RedQX1 iteration    13 Try  3 RMS(Cart)=  0.00006109 RMS(Int)=  0.01926007 XScale=  1.14406164
 RedQX1 iteration    13 Try  4 RMS(Cart)=  0.00009028 RMS(Int)=  0.01931690 XScale=  1.14268551
 RedQX1 iteration    13 Try  5 RMS(Cart)=  0.00017659 RMS(Int)=  0.01942861 XScale=  1.13995486
 RedQX1 iteration    13 Try  6 RMS(Cart)=  0.00016884 RMS(Int)=  0.01953606 XScale=  1.13729902
 RedQX1 iteration    14 Try  1 RMS(Cart)=  0.00003228 RMS(Int)=  0.01955666 XScale=  1.13678675
 RedQX1 iteration    14 Try  2 RMS(Cart)=  0.00003999 RMS(Int)=  0.01958222 XScale=  1.13614988
 RedQX1 iteration    14 Try  3 RMS(Cart)=  0.00005272 RMS(Int)=  0.01961596 XScale=  1.13530643
 RedQX1 iteration    14 Try  4 RMS(Cart)=  0.00007791 RMS(Int)=  0.01966595 XScale=  1.13405225
 RedQX1 iteration    14 Try  5 RMS(Cart)=  0.00015235 RMS(Int)=  0.01976410 XScale=  1.13157306
 RedQX1 iteration    14 Try  6 RMS(Cart)=  0.00014561 RMS(Int)=  0.01985834 XScale=  1.12917315
 RedQX1 iteration    15 Try  1 RMS(Cart)=  0.00002782 RMS(Int)=  0.01987639 XScale=  1.12871146
 RedQX1 iteration    15 Try  2 RMS(Cart)=  0.00003447 RMS(Int)=  0.01989877 XScale=  1.12813802
 RedQX1 iteration    15 Try  3 RMS(Cart)=  0.00004544 RMS(Int)=  0.01992832 XScale=  1.12737944
 RedQX1 iteration    15 Try  4 RMS(Cart)=  0.00006715 RMS(Int)=  0.01997206 XScale=  1.12625328
 RedQX1 iteration    15 Try  5 RMS(Cart)=  0.00013128 RMS(Int)=  0.02005787 XScale=  1.12403321
 RedQX1 iteration    15 Try  6 RMS(Cart)=  0.00012542 RMS(Int)=  0.02014014 XScale=  1.12189147
 RedQX1 iteration    16 Try  1 RMS(Cart)=  0.00002396 RMS(Int)=  0.02015589 XScale=  1.12148026
 RedQX1 iteration    16 Try  2 RMS(Cart)=  0.00002968 RMS(Int)=  0.02017541 XScale=  1.12096984
 RedQX1 iteration    16 Try  3 RMS(Cart)=  0.00003913 RMS(Int)=  0.02020118 XScale=  1.12029521
 RedQX1 iteration    16 Try  4 RMS(Cart)=  0.00005781 RMS(Int)=  0.02023930 XScale=  1.11929484
 RedQX1 iteration    16 Try  5 RMS(Cart)=  0.00011301 RMS(Int)=  0.02031401 XScale=  1.11732672
 RedQX1 iteration    16 Try  6 RMS(Cart)=  0.00010793 RMS(Int)=  0.02038559 XScale=  1.11543286
 RedQX1 iteration    17 Try  1 RMS(Cart)=  0.00002061 RMS(Int)=  0.02039928 XScale=  1.11506977
 RedQX1 iteration    17 Try  2 RMS(Cart)=  0.00002553 RMS(Int)=  0.02041625 XScale=  1.11461930
 RedQX1 iteration    17 Try  3 RMS(Cart)=  0.00003366 RMS(Int)=  0.02043863 XScale=  1.11402429
 RedQX1 iteration    17 Try  4 RMS(Cart)=  0.00004972 RMS(Int)=  0.02047175 XScale=  1.11314276
 RedQX1 iteration    17 Try  5 RMS(Cart)=  0.00009719 RMS(Int)=  0.02053661 XScale=  1.11141105
 RedQX1 iteration    17 Try  6 RMS(Cart)=  0.00009280 RMS(Int)=  0.02059870 XScale=  1.10974786
 RedQX1 iteration    18 Try  1 RMS(Cart)=  0.00001772 RMS(Int)=  0.02061056 XScale=  1.10942935
 RedQX1 iteration    18 Try  2 RMS(Cart)=  0.00002195 RMS(Int)=  0.02062527 XScale=  1.10903434
 RedQX1 iteration    18 Try  3 RMS(Cart)=  0.00002893 RMS(Int)=  0.02064467 XScale=  1.10851283
 RedQX1 iteration    18 Try  4 RMS(Cart)=  0.00004273 RMS(Int)=  0.02067336 XScale=  1.10774072
 RedQX1 iteration    18 Try  5 RMS(Cart)=  0.00008352 RMS(Int)=  0.02072953 XScale=  1.10622567
 RedQX1 iteration    18 Try  6 RMS(Cart)=  0.00007972 RMS(Int)=  0.02078325 XScale=  1.10477272
 RedQX1 iteration    19 Try  1 RMS(Cart)=  0.00001522 RMS(Int)=  0.02079352 XScale=  1.10449471
 RedQX1 iteration    19 Try  2 RMS(Cart)=  0.00001885 RMS(Int)=  0.02080624 XScale=  1.10415003
 RedQX1 iteration    19 Try  3 RMS(Cart)=  0.00002484 RMS(Int)=  0.02082301 XScale=  1.10369514
 RedQX1 iteration    19 Try  4 RMS(Cart)=  0.00003670 RMS(Int)=  0.02084781 XScale=  1.10302199
 RedQX1 iteration    19 Try  5 RMS(Cart)=  0.00007172 RMS(Int)=  0.02089635 XScale=  1.10170232
 RedQX1 iteration    19 Try  6 RMS(Cart)=  0.00006845 RMS(Int)=  0.02094275 XScale=  1.10043818
 RedQX1 iteration    20 Try  1 RMS(Cart)=  0.00001306 RMS(Int)=  0.02095162 XScale=  1.10019646
 RedQX1 iteration    20 Try  2 RMS(Cart)=  0.00001618 RMS(Int)=  0.02096260 XScale=  1.09989684
 RedQX1 iteration    20 Try  3 RMS(Cart)=  0.00002133 RMS(Int)=  0.02097708 XScale=  1.09950153
 RedQX1 iteration    20 Try  4 RMS(Cart)=  0.00003150 RMS(Int)=  0.02099848 XScale=  1.09891679
 RedQX1 iteration    20 Try  5 RMS(Cart)=  0.00006155 RMS(Int)=  0.02104035 XScale=  1.09777123
 RedQX1 iteration    20 Try  6 RMS(Cart)=  0.00005873 RMS(Int)=  0.02108037 XScale=  1.09667486
 Old curvilinear step not converged, using linear step:
 SCX= 3.59D-01 DXMaxT= 1.43D+00 SCLim= 7.13D-01 Fact= 1.00D+00
 Error imposing constraints
 Error termination via Lnk1e in /usr/local/apps/eb/gaussian/09-Intel-SSE4_2/g09/l103.exe at Mon Dec  3 12:47:57 2018.
 Job cpu time:       0 days  0 hours  0 minutes 30.5 seconds.
 File lengths (MBytes):  RWF=     48 Int=      0 D2E=      0 Chk=     13 Scr=      1
