Generated by Psi4
     FORCE                           RHF             ANONYMOUSB4566DA8
Number of atoms                            I                4
Charge                                     I                0
Multiplicity                               I                1
Number of electrons                        I               16
Number of alpha electrons                  I                8
Number of beta electrons                   I                8
Number of basis functions                  I               38
Number of independent functions            I               38
Atomic numbers                             I   N=           4
           6           8           1           1
Nuclear charges                            R   N=           4
  6.00000000e+00  8.00000000e+00  1.00000000e+00  1.00000000e+00
Current cartesian coordinates              R   N=          12
 -3.00504987e-01  1.09108824e+00  8.09129235e-05  3.01483879e-01 -1.09468993e+00
 -8.03537304e-05 -6.03225198e-01  2.19094429e+00  1.78537874e+00 -6.03481343e-01
  2.19117845e+00 -1.78506688e+00
Integer atomic weights                     I   N=           4
          12          16           1           1
Real atomic weights                        R   N=           4
  1.20000000e+01  1.59949146e+01  1.00782503e+00  1.00782503e+00
Number of primitive shells                 I               34
Number of contracted shells                I               18
Pure/Cartesian d shells                    I                0
Pure/Cartesian f shells                    I                0
Highest angular momentum                   I                2
Largest degree of contraction              I                5
Shell types                                I   N=          18
           0           0           0           1           1          -2
           0           0           0           1           1          -2
           0           0           1           0           0           1
Number of primitives per shell             I   N=          18
           5           1           1           3           1           1
           5           1           1           3           1           1
           3           1           1           3           1           1
Shell to atom map                          I   N=          18
           1           1           1           1           1           1
           2           2           2           2           2           2
           3           3           3           4           4           4
Primitive exponents                        R   N=          34
  1.23840169e+03  1.86290050e+02  4.22511763e+01  1.16765579e+01  3.59305065e+00
  4.02451474e-01  1.30901827e-01  9.46809706e+00  2.01035451e+00  5.47710047e-01
  1.52686138e-01  8.00000000e-01  2.26617678e+03  3.40870102e+02  7.73631352e+01
  2.14796449e+01  6.65894331e+00  8.09759757e-01  2.55307722e-01  1.77215043e+01
  3.86355054e+00  1.04809209e+00  2.76415444e-01  1.20000000e+00  1.30107010e+01
  1.96225720e+00  4.44537960e-01  1.21949620e-01  8.00000000e-01  1.30107010e+01
  1.96225720e+00  4.44537960e-01  1.21949620e-01  8.00000000e-01
Contraction coefficients                   R   N=          34
  5.51736505e-03  4.10888286e-02  1.82253821e-01  4.68284594e-01  4.45758173e-01
  1.00000000e+00  1.00000000e+00  5.68883320e-02  3.12940593e-01  7.60650165e-01
  1.00000000e+00  1.00000000e+00 -5.38935039e-03 -4.02347214e-02 -1.80081842e-01
 -4.68288577e-01 -4.46926172e-01  1.00000000e+00  1.00000000e+00  6.26302488e-02
  3.33311385e-01  7.41486383e-01  1.00000000e+00  1.00000000e+00  3.34854848e-02
  2.34721871e-01  8.13770285e-01  1.00000000e+00  1.00000000e+00  3.34854848e-02
  2.34721871e-01  8.13770285e-01  1.00000000e+00  1.00000000e+00
Coordinates of each shell                  R   N=          54
 -3.00504987e-01  1.09108824e+00  8.09129235e-05 -3.00504987e-01  1.09108824e+00
  8.09129235e-05 -3.00504987e-01  1.09108824e+00  8.09129235e-05 -3.00504987e-01
  1.09108824e+00  8.09129235e-05 -3.00504987e-01  1.09108824e+00  8.09129235e-05
 -3.00504987e-01  1.09108824e+00  8.09129235e-05  3.01483879e-01 -1.09468993e+00
 -8.03537304e-05  3.01483879e-01 -1.09468993e+00 -8.03537304e-05  3.01483879e-01
 -1.09468993e+00 -8.03537304e-05  3.01483879e-01 -1.09468993e+00 -8.03537304e-05
  3.01483879e-01 -1.09468993e+00 -8.03537304e-05  3.01483879e-01 -1.09468993e+00
 -8.03537304e-05 -6.03225198e-01  2.19094429e+00  1.78537874e+00 -6.03225198e-01
  2.19094429e+00  1.78537874e+00 -6.03225198e-01  2.19094429e+00  1.78537874e+00
 -6.03481343e-01  2.19117845e+00 -1.78506688e+00 -6.03481343e-01  2.19117845e+00
 -1.78506688e+00 -6.03481343e-01  2.19117845e+00 -1.78506688e+00
Total Energy                               R     -1.144155025656782e+02
Alpha Orbital Energies                     R   N=          38
 -1.91540568e+01 -1.02903931e+01 -1.05379739e+00 -6.26564586e-01 -4.95521280e-01
 -4.52294617e-01 -4.06455655e-01 -2.71031858e-01 -4.65237100e-02  6.65326729e-02
  1.32135562e-01  1.95258443e-01  4.41112609e-01  4.51321050e-01  5.40730604e-01
  5.85633718e-01  6.07107851e-01  6.60405939e-01  8.80194945e-01  9.83981370e-01
  1.09402394e+00  1.16250803e+00  1.28473302e+00  1.43067465e+00  1.54493629e+00
  1.60867795e+00  1.79712808e+00  1.84371346e+00  1.90765856e+00  2.06235565e+00
  2.48550194e+00  2.56681059e+00  2.58278323e+00  2.68802320e+00  2.88711286e+00
  3.12852789e+00  3.40327947e+00  3.56131936e+00
Alpha MO coefficients                      R   N=        1444
  3.30613870e-04  9.12718973e-04  1.11789623e-02 -3.32856319e-04  1.20865828e-03
  1.00717630e-07  1.93842537e-03 -7.03804750e-03 -4.53206227e-07  1.65333313e-03
  1.44591478e-07 -2.99746220e-07  1.46715561e-03  8.74481369e-04 -9.88721340e-01
  4.14696042e-02 -2.73768480e-02 -8.22391748e-04  2.98603511e-03  2.19506877e-07
  1.54608367e-03 -5.61378767e-03 -4.31042490e-07 -3.20436382e-04 -2.10460381e-08
  6.97404742e-08 -4.47515814e-04 -2.66738432e-04 -5.93830717e-04 -4.24917683e-04
 -2.39486400e-04  8.69491742e-04 -1.64797649e-04 -5.93770620e-04 -4.24840821e-04
 -2.39464958e-04  8.69478145e-04  1.64937249e-04  9.88249163e-01  4.84702413e-02
 -1.86772867e-02  2.38184580e-04 -8.64052670e-04  4.38456112e-08  1.82647242e-03
 -6.63268037e-03 -5.32392093e-07  1.08071054e-03  2.15620165e-07  1.61521788e-07
 -2.55422525e-03 -1.52221253e-03  1.68941706e-04  2.20964166e-04 -9.30183912e-03
  2.74901022e-04 -9.98151693e-04 -7.34309394e-08  1.94255301e-03 -7.05301796e-03
 -5.31331346e-07  2.48587028e-04  5.20872605e-09 -9.34191991e-08  6.98336518e-04
  4.16265852e-04 -4.21943192e-03  6.41686178e-03 -5.20236808e-04  1.88999008e-03
  2.37641996e-03 -4.21921806e-03  6.41666712e-03 -5.20576054e-04  1.89029560e-03
 -2.37613889e-03  1.49010955e-01 -2.89144612e-01 -3.42510199e-02 -5.35150229e-02
  1.94308897e-01  1.40977619e-05 -5.77695939e-03  2.09774669e-02  1.82989692e-06
  1.62878000e-02  1.16732506e-06 -3.44480303e-06  2.07220444e-02  1.23510902e-02
 -2.57786219e-01 -5.14180088e-01 -2.51308802e-01  4.59580075e-02 -1.66870386e-01
 -1.23791949e-05  7.19736931e-03 -2.61338397e-02 -2.05087099e-06  9.59431852e-03
  7.89999139e-07 -1.82877216e-06  9.66826866e-03  5.76267030e-03 -3.03577473e-02
 -4.98274702e-03 -9.87322573e-04  3.58719271e-03  6.32592661e-03 -3.03560134e-02
 -4.98244024e-03 -9.88147062e-04  3.58772066e-03 -6.32499901e-03  2.09164657e-01
 -4.40201053e-01 -1.51152772e-01  5.79419195e-02 -2.10421361e-01 -2.34748429e-05
  2.13134397e-02 -7.73933736e-02 -5.66340407e-06 -1.00973624e-02 -1.00129576e-06
  1.18696102e-06 -4.23624021e-03 -2.52520948e-03  1.14271340e-01  2.43602870e-01
  1.78058148e-01  2.58351828e-02 -9.38200163e-02 -9.92597762e-06  1.72577771e-02
 -6.26699077e-02 -6.50329412e-06  2.78683914e-03  1.74328652e-07 -1.22338091e-06
  6.75746600e-03  4.02719582e-03 -2.34433218e-01 -4.44139518e-02 -1.99711035e-03
  7.25755354e-03  1.90514813e-02 -2.34422014e-01 -4.44107557e-02 -1.99967138e-03
  7.25942909e-03 -1.90497932e-02  3.70821864e-06 -9.03208015e-06 -5.82255168e-06
  3.00736463e-05 -2.38988397e-05  4.37587563e-01  1.04208527e-05 -9.79567386e-06
  1.43832987e-01 -7.06308930e-08  1.20566907e-03 -4.37336944e-03  2.59351294e-08
 -2.58889000e-07  2.48682660e-06  5.13342089e-06  6.00724361e-06  2.22130021e-05
 -2.30281568e-05  2.95709310e-01  1.23801800e-05 -1.25286213e-05  1.66353932e-01
  2.62544519e-06 -5.37671534e-03  1.95226983e-02  9.18287023e-07  1.76763372e-06
  2.48549877e-01  7.88256468e-02  2.62679514e-03 -9.54235682e-03 -7.34556138e-03
 -2.48552929e-01 -7.88264261e-02 -2.62792998e-03  9.54361834e-03 -7.34448655e-03
  4.08633188e-02 -1.16528163e-01  4.68545849e-02 -9.65867595e-02  3.50763365e-01
  2.26594304e-05 -1.50658331e-02  5.47302061e-02  2.30214413e-06  1.32762488e-02
  1.15490108e-06 -2.09300358e-06  1.04876988e-02  6.25019304e-03  1.12053055e-01
  2.22252674e-01  3.25630942e-01  1.37325737e-01 -4.98563637e-01 -3.98415174e-05
  7.01118575e-02 -2.54537586e-01 -2.04961652e-05  9.58739937e-03  6.05373906e-07
 -2.61366277e-06  1.61100621e-02  9.60323764e-03  1.04551724e-01  4.22539455e-02
 -9.41832645e-04  3.41857532e-03 -6.98093224e-03  1.04556999e-01  4.22557335e-02
 -9.40765244e-04  3.41741898e-03  6.98172909e-03  3.79973085e-06 -8.03035613e-06
 -8.79001647e-06  3.58148268e-01  9.86179772e-02 -1.92257481e-05  2.00500729e-01
  5.52139703e-02 -1.07585491e-05 -4.90776114e-07 -2.69253576e-06  1.09205126e-06
  1.74943095e-02 -2.93523712e-02 -2.01620253e-06 -3.39014533e-06 -9.15781704e-06
  4.85799541e-01  1.33813561e-01 -2.60789726e-05  3.02069856e-01  8.32028269e-02
 -1.62143864e-05 -2.92525680e-07  2.23273432e-06 -8.40038289e-07 -1.38812799e-02
  2.32882963e-02 -2.37083718e-06 -2.30049508e-06  7.28234815e-03  2.00516314e-03
 -3.61247123e-07 -2.36718310e-06 -2.29438645e-06  7.28215258e-03  2.00510927e-03
 -4.20581225e-07 -3.27170156e-07  6.66571462e-08 -2.09724726e-06  1.00203513e-05
 -7.53264252e-06  1.48532154e-01 -3.31091016e-06  3.31243451e-06 -4.42389671e-02
  6.60557583e-06 -1.36413954e-02  4.95351160e-02  1.95949151e-06  4.26201833e-06
 -4.88927247e-08 -2.80751175e-07  1.21186374e-06 -3.90839804e-05  3.01950099e-05
 -5.73626920e-01 -2.82436811e-05  2.22771057e-05 -4.12214685e-01 -1.67139605e-06
  3.61515614e-03 -1.31258688e-02 -4.94196349e-07 -1.11520150e-06  2.62357516e-01
  2.30125502e-01  9.69539341e-04 -3.52360268e-03 -4.00536856e-03 -2.62359420e-01
 -2.30129027e-01 -9.70157138e-04  3.52428018e-03 -4.00510123e-03  9.66285346e-06
 -1.85792115e-05 -8.20028820e-05  4.85440889e-01  1.33677724e-01 -2.60549863e-05
  5.50261945e-01  1.51517790e-01 -2.95420699e-05  4.40655991e-07  2.58353754e-06
 -8.79127046e-07 -1.51880230e-02  2.54804224e-02  1.37801253e-06  3.97805949e-06
 -7.86268054e-07 -4.23776179e-01 -1.16705613e-01  2.27216300e-05 -4.47604752e-01
 -1.23270844e-01  2.40048639e-05  1.00743031e-07  2.87509913e-07 -1.05932699e-07
 -1.76166802e-03  2.95539491e-03  1.86745982e-05  4.09537494e-05  2.48330849e-02
  6.83897298e-03 -2.17907189e-06  1.86542541e-05  4.09243202e-05  2.48328654e-02
  6.83891242e-03 -4.87247097e-07  1.40486099e-01 -3.00554342e-01 -1.89788946e+00
  6.06929490e-02 -2.20492490e-01 -3.47445172e-06  1.67767287e-01 -6.09447316e-01
 -3.16591178e-05  6.01072737e-03  1.00541211e-06  1.98406767e-07 -8.02754186e-03
 -4.78562339e-03  5.64374639e-03  2.00058829e-02 -5.30135650e-02 -1.83318309e-02
  6.66247957e-02 -2.18621808e-06 -8.67223318e-03  3.15904886e-02 -6.90554210e-06
  5.02681226e-03  4.97223833e-07 -3.41052855e-07  1.02486190e-03  6.10127401e-04
  9.90355775e-02  1.43694104e+00 -1.16264195e-03  4.22032379e-03  9.49764118e-03
  9.90392657e-02  1.43697006e+00 -1.16414031e-03  4.22206003e-03 -9.49698392e-03
 -1.62124781e-06  4.53294005e-06  5.27031711e-05  3.06769033e-05 -2.17697785e-05
  4.59773614e-01  7.37764098e-05 -3.70751708e-05  1.18413082e+00  3.99730444e-07
 -2.35558144e-04  8.53121599e-04 -3.81729876e-07 -1.74209812e-07  1.76015547e-06
  3.31234409e-06  1.87764540e-05 -1.02994647e-05  9.40601814e-06 -1.43576448e-01
 -2.22080588e-05  2.26149383e-05 -2.97633756e-01  9.79414637e-07 -2.82860084e-03
  1.02686925e-02  1.01241013e-07  7.02137409e-07  5.36771638e-03 -1.63667497e+00
  1.69959401e-03 -6.17701707e-03 -5.74904387e-03 -5.35880715e-03  1.63657391e+00
 -1.70053496e-03  6.17819229e-03 -5.74797345e-03  2.96465538e-02  1.07176650e-02
 -1.72306179e+00 -2.65962742e-02  9.65582231e-02  1.51502688e-06 -4.44947281e-01
  1.61556285e+00  1.01528814e-04 -1.43233431e-02 -9.76916099e-07  3.15643251e-06
 -1.96010271e-02 -1.16825130e-02  1.09318158e-01  1.49241871e-01  1.82529977e+00
 -3.99679601e-02  1.45127496e-01  1.12393377e-05 -1.65048049e-01  5.99281576e-01
  4.70888773e-05 -1.12799986e-02 -7.39783889e-07  2.44489311e-06 -1.57135796e-02
 -9.36593216e-03  3.87765369e-02  1.92281398e-03 -4.27232501e-03  1.55057252e-02
 -1.48453321e-02  3.87826302e-02  1.85665928e-03 -4.27047873e-03  1.55048084e-02
  1.48480503e-02  8.68855124e-02 -9.04655980e-01  2.14563452e+00  1.13615210e-02
 -4.03662450e-02 -8.93728603e-06 -2.54880097e-01  9.24754966e-01  1.13776416e-04
 -9.91727798e-02 -1.35067244e-05  7.25052680e-06  3.66341010e-02  2.18256794e-02
 -1.93090098e-02 -8.67357117e-02  1.57299454e-01 -1.09691866e-02  3.97874075e-02
  5.08542032e-06 -1.39058074e-02  5.05330618e-02 -3.43635465e-06 -4.12181746e-03
 -7.99160355e-07 -9.64988711e-07  1.09160117e-02  6.51626190e-03 -7.58377451e-01
 -3.85912154e-01 -1.02666073e-02  3.73022721e-02 -3.94433435e-02 -7.58395312e-01
 -3.85819459e-01 -1.02613412e-02  3.72985292e-02  3.94470031e-02 -5.53303716e-06
  1.33198883e-04 -4.23569675e-04  9.52593684e-01  2.62345461e-01 -5.11256367e-05
 -1.08771716e+00 -2.99778251e-01  5.83403291e-05  2.51566129e-05 -1.78194470e-06
  7.14287117e-07  1.15197604e-02 -1.93506840e-02  5.33558677e-06  2.24523811e-05
 -3.55891573e-05  1.71847809e-02  4.72914982e-03 -9.21427613e-07  1.17583837e-01
  3.23774095e-02 -6.30952670e-06  1.34247877e-06  2.77897583e-06 -1.03909839e-06
 -1.72185323e-02  2.88834695e-02  1.96242791e-04  7.05808652e-05  1.47558940e-02
  4.05248158e-03  8.54339703e-06  1.96239159e-04  7.05322783e-05  1.47532357e-02
  4.05175131e-03 -1.01296822e-05 -1.66759607e-05  1.00991788e-04 -2.59618737e-04
  2.10811879e-06  7.88254233e-06  7.97619469e-02 -9.66164167e-05  5.09020162e-05
 -1.53877181e+00  1.02570882e-05 -2.41614414e-02  8.77830563e-02  6.71154452e-06
  9.48424273e-06 -1.22877567e-07 -2.38018771e-06  2.96331522e-05  2.87005186e-05
 -3.17028845e-05  3.71989585e-01  1.52250930e-05 -9.30598163e-06  2.35889769e-01
 -2.35476084e-06  4.08232531e-03 -1.48185313e-02 -2.15506979e-06 -2.21076451e-06
  8.06928608e-01  1.67537156e-01 -1.83038993e-02  6.64848752e-02 -2.65060805e-02
 -8.06986443e-01 -1.67302599e-01  1.83012938e-02 -6.64857443e-02 -2.65093599e-02
  2.95906706e-01 -1.72405672e+00  3.28042056e+00  3.85259474e-02 -1.40090855e-01
  1.73299725e-04 -1.72037673e-01  6.25005279e-01 -4.24516859e-04  5.89334881e-02
  1.38236416e-05 -1.49817572e-05 -6.75084345e-02 -4.02292192e-02  3.49796445e-02
  1.27668065e-01 -1.78179593e-01 -5.47431564e-02  1.98779939e-01  4.27330726e-05
 -3.17000018e-02  1.15073499e-01  5.52695157e-05  1.19895665e-02 -8.86091460e-07
  1.71414212e-06  2.44701630e-02  1.45824090e-02  5.28013633e-01 -1.54753773e+00
 -1.45134928e-02  5.27247474e-02  9.42990122e-02  5.28053077e-01 -1.54817128e+00
 -1.45321506e-02  5.27557250e-02 -9.43281903e-02 -5.64026033e-05  3.21504455e-04
 -6.24726926e-04  6.17987737e-05 -3.86260238e-05  9.53034685e-01 -1.13268410e-04
  1.80711956e-05 -2.01725716e+00 -3.10970278e-05  3.38199447e-02 -1.22825482e-01
  1.04902935e-05 -1.42426280e-06 -8.26910151e-06 -3.06919573e-05  4.40569269e-05
  1.26341838e-05 -4.22870880e-05  1.84034556e-02  1.87687651e-05 -3.49119958e-05
  1.70551944e-01  1.62533835e-06 -9.49855142e-03  3.44910320e-02 -3.99462000e-06
 -2.25208352e-07 -3.59217816e-01  1.64681046e+00  2.24081661e-02 -8.14018632e-02
 -9.80402259e-02  3.59000409e-01 -1.64621360e+00 -2.24156584e-02  8.13908518e-02
 -9.79874886e-02  9.18301930e-02 -4.02865995e-01 -7.87287155e-01 -2.89769448e-01
  1.05217277e+00  8.80597318e-05  2.76527706e-01 -1.00417819e+00 -8.97747978e-05
 -9.05603867e-02 -6.72389280e-06  1.56660019e-05 -9.61994191e-02 -5.73403421e-02
  9.32995288e-02  2.99688336e-01 -2.01642148e-01 -1.02813852e-01  3.73319500e-01
  2.54533222e-05 -1.20280873e-01  4.36737113e-01  3.26874563e-05  4.63585520e-02
  2.93542845e-06 -1.04076393e-05  6.78824359e-02  4.04605686e-02 -5.79432061e-02
  5.78453321e-01 -5.78535255e-03  2.09721716e-02 -8.34467220e-02 -5.79297180e-02
  5.78419298e-01 -5.77368630e-03  2.09623438e-02  8.34472681e-02  3.26812183e-02
 -6.33813578e-01 -7.28522293e-02 -4.15048240e-02  1.50690762e-01  1.10198134e-05
 -7.14519281e-02  2.59446124e-01  1.82239968e-05  8.97178366e-02  5.73242192e-06
 -2.34085756e-05  1.44934343e-01  8.63835618e-02  1.38313681e-01  5.73076714e-01
  1.64666321e-02  1.94711145e-01 -7.07013410e-01 -5.64725621e-05 -3.51182453e-01
  1.27514936e+00  9.83478029e-05 -6.00070665e-05 -1.28113588e-07  5.59043925e-08
  1.72954752e-03  1.03081645e-03 -1.89083177e-02 -5.19790433e-02  2.33052251e-02
 -8.46103365e-02  3.21914959e-02 -1.89057291e-02 -5.19818228e-02  2.33001864e-02
 -8.46045949e-02 -3.22047358e-02 -1.41707090e-07  1.12342580e-05 -3.00817843e-05
  3.20601491e-02  8.83358646e-03 -1.71842068e-06 -3.77537118e-01 -1.03985657e-01
  2.02460401e-05  6.26399492e-06  2.59393539e-06 -8.91732651e-08 -7.68657853e-03
  1.28830020e-02  3.59887788e-08 -1.11719287e-08  7.34884580e-07 -9.15863804e-01
 -2.52228098e-01  4.91505155e-05  1.16631623e+00  3.21203050e-01 -6.25902681e-05
  8.78523980e-07 -1.69541015e-06  6.83609694e-07  1.09809695e-02 -1.84238192e-02
  2.60585963e-06  1.42602956e-05 -8.38201705e-02 -2.30922631e-02  1.19949570e-05
  2.59914783e-06  1.42447983e-05 -8.38249653e-02 -2.30935834e-02 -2.99798537e-06
  7.53634064e-07 -1.95901799e-06 -2.11788938e-06  8.82656516e-06 -9.62322537e-06
  1.15068136e-01 -1.01492566e-04  8.80972776e-05 -1.43883460e+00  2.30027280e-05
 -4.85578780e-02  1.76651154e-01  5.03922040e-06  1.40345852e-05  1.04722581e-06
  6.17264166e-06 -5.04413092e-06 -6.10614135e-05  5.23712842e-05 -8.69045484e-01
  1.05599738e-04 -9.09835214e-05  1.50075515e+00 -8.17700279e-06  1.77044823e-02
 -6.42538334e-02 -2.67386099e-06 -5.61013030e-06  2.28906329e-01  5.77020475e-01
 -1.18940039e-02  4.35484178e-02 -5.41998066e-02 -2.28911288e-01 -5.77013935e-01
  1.18873497e-02 -4.35453699e-02 -5.42103283e-02  2.67864466e-10 -4.81565941e-09
 -2.01199762e-08 -6.78997705e-06 -1.86301189e-06 -2.90932521e-05  3.33953590e-06
  9.06146284e-07  2.96831727e-04 -4.07059971e-05  4.37751930e-01  1.20484785e-01
  3.78150821e-05 -1.75588527e-05 -2.75938373e-09 -1.79859452e-08  3.63209570e-08
  3.74336002e-06  1.01862220e-06  1.48480170e-04 -5.12932087e-06 -1.37728748e-06
 -2.91789453e-04 -3.44768131e-06  3.71089908e-02  1.02411903e-02  3.25441461e-06
 -1.56498472e-06 -4.29581892e-05 -1.25930799e-04  5.01964513e-01  1.38184582e-01
 -9.15056394e-06  4.29588592e-05  1.25934375e-04 -5.01962476e-01 -1.38184023e-01
  4.47492862e-05  3.24607910e-02 -6.97172223e-01 -2.18946307e+00 -8.83642566e-02
  3.20850521e-01  2.22076777e-05 -3.43005693e-01  1.24542038e+00  6.21418066e-05
  1.84079159e-01  1.58509771e-05 -3.09252635e-05  1.56467310e-01  9.32562525e-02
 -2.75913332e-01 -1.89636009e+00  4.17008796e+00  5.39425947e-02 -1.95863062e-01
 -1.90094819e-05 -4.18737647e-01  1.52040075e+00  1.26265385e-04  3.66795075e-02
  3.23869915e-06 -9.12430680e-06  4.29695674e-02  2.56123161e-02  1.01569965e-01
  1.23644902e-01 -9.07820203e-03  3.28834844e-02 -5.82140102e-02  1.01557273e-01
  1.23611890e-01 -9.07320968e-03  3.28880942e-02  5.82224710e-02  6.39792369e-06
 -5.07306174e-05  1.75315297e-04  4.19303980e-02  1.15426423e-02 -2.25064038e-06
  4.69770425e-01  1.29486687e-01 -2.52120653e-05  5.57185859e-05 -4.93397249e-05
  1.71933676e-05  2.93649090e-01 -4.92737462e-01  5.13944112e-06  2.73458415e-05
 -7.49406446e-06  4.14764765e-02  1.14490557e-02 -2.22813162e-06 -4.60569168e-01
 -1.26879188e-01  2.47235971e-05  5.78374119e-06  1.32796824e-05 -5.37360742e-06
 -8.61560552e-02  1.44540436e-01 -5.02958271e-05 -5.94013188e-05 -4.94085519e-01
 -1.36125556e-01  6.11327855e-05 -5.03025013e-05 -5.93954053e-05 -4.94091724e-01
 -1.36127263e-01 -8.09083866e-06  6.09225044e-06 -3.09068478e-05  1.54777693e-05
  1.03076726e-05 -8.48700201e-06  1.48509589e-01 -9.67247929e-05  1.16814292e-04
 -1.20254737e+00  9.39320292e-06  3.88692883e-02 -1.41186966e-01 -1.92564733e-05
 -2.02917185e-05  2.69478989e-06  1.07329030e-05  2.14568573e-05 -1.52101001e-05
  2.54605555e-05 -1.52739425e-01  3.41992028e-05 -3.65687927e-05  4.49446010e-01
  3.73579146e-06  3.41166327e-03 -1.23873955e-02 -2.92368030e-06 -2.51909704e-06
  3.65668089e-01  3.75059838e-01  1.23214719e-01 -4.47478076e-01  5.25570236e-01
 -3.65705320e-01 -3.75060009e-01 -1.23122951e-01  4.47349792e-01  5.25649100e-01
  7.64511857e-02 -5.36015942e-01  2.46947108e-01 -2.39744278e-02  8.69719490e-02
  6.37155734e-06 -3.06749308e-01  1.11373906e+00  1.85417086e-04  4.54349896e-01
  6.05787702e-05 -5.32343142e-05 -5.87640686e-02 -3.49541822e-02  8.53353598e-03
 -9.15453538e-02  1.04868797e+00 -7.83477454e-02  2.84524333e-01  2.50032048e-05
 -2.01483463e-02  7.32243286e-02 -3.40611785e-05  6.76930262e-02  5.28206124e-06
  8.01037689e-06 -1.91275217e-02 -1.14278785e-02 -3.09079903e-01 -1.97477939e-01
  1.56362132e-01 -5.67489353e-01  7.98066718e-02 -3.09045474e-01 -1.97377183e-01
  1.56377915e-01 -5.67577827e-01 -7.99487982e-02 -1.22489250e-06  1.73578601e-05
 -2.89193968e-05  2.78527199e-05 -3.71898041e-05  3.28087847e-01  2.53398759e-05
 -7.09620389e-05  1.08027651e-01 -8.22508527e-05  1.37268732e-01 -4.98557053e-01
 -2.46058439e-05 -4.58139192e-05 -3.39948270e-06 -1.23965783e-05 -4.00329811e-05
 -7.13717427e-06 -1.36921513e-05 -2.03206598e-01 -4.65527067e-07  5.17206637e-06
  1.78211781e-02  2.94754934e-05 -7.17597425e-02  2.60515534e-01  9.94740098e-06
  2.22100280e-05  1.44649762e-01 -3.42427563e-01 -1.35598454e-01  4.92527791e-01
  2.08889129e-01 -1.44615999e-01  3.42466685e-01  1.35611136e-01 -4.92492430e-01
  2.08852742e-01  1.81307397e-02 -2.27849994e-01  5.70337120e-01  1.21379055e-01
 -4.40486714e-01 -4.27738376e-05  1.93575988e-01 -7.02487812e-01 -1.57694830e-05
  2.81930857e-01  4.88392628e-05  4.45973455e-05 -5.58560019e-01 -3.32532969e-01
 -1.47301841e-02  6.34454942e-02 -1.10209340e+00  9.22004843e-02 -3.34483023e-01
 -1.67082050e-05  4.27457858e-02 -1.55275956e-01 -2.36534969e-05  8.29043457e-02
  1.47237695e-05 -6.23211363e-06 -8.49301856e-02 -5.07490177e-02 -2.01478796e-02
  1.61921209e-01 -4.47069633e-02  1.61219082e-01 -5.01209370e-01 -2.01181041e-02
  1.61937235e-01 -4.46371527e-02  1.61160925e-01  5.01209590e-01 -5.68515017e-06
  8.57218169e-05 -1.53299862e-04  1.70430798e-01  4.71382843e-02 -9.13094164e-06
  2.37249652e-01  6.56920355e-02 -1.27291694e-05 -1.36543152e-04  3.13849843e-05
 -3.00001321e-05 -3.68213773e-01  6.18402753e-01  1.26327547e-05  1.27706746e-05
  4.27405942e-04  1.66089078e-01  4.59175360e-02 -8.90731916e-06 -6.56437324e-02
 -1.80334640e-02  3.53020851e-06 -4.84808533e-05 -2.76840168e-05  5.89926914e-06
  1.29011791e-01 -2.16351773e-01 -1.79017049e-05 -9.41088033e-05 -5.73101360e-01
 -1.57915278e-01  2.73169929e-04 -1.79124810e-05 -9.41132665e-05 -5.73138360e-01
 -1.57925428e-01 -2.11637656e-04 -7.54466060e-11  2.26820472e-09  8.42794117e-09
  1.24078863e-05  3.41911283e-06 -2.90934307e-05  1.25683703e-05  3.45888924e-06
  2.48431366e-05 -8.13785373e-05  8.75200428e-01  2.40972070e-01  6.06474620e-05
 -9.99895937e-06  3.59111114e-10  3.86034434e-09 -8.59809494e-09  5.39554516e-06
  1.48896612e-06 -1.31823986e-05 -4.63860235e-06 -1.28183955e-06 -8.79468471e-06
 -2.51438907e-05  2.70478881e-01  7.45303966e-02  2.70567768e-05 -1.70289850e-05
 -4.61912867e-07 -6.27055491e-06 -5.19013950e-01 -1.42908213e-01  1.26123193e-05
  4.60580314e-07  6.26547044e-06  5.18956888e-01  1.42892503e-01 -4.31142203e-05
  1.52942693e-01 -6.97378021e-01 -8.13855423e-01  1.21114543e-01 -4.39933442e-01
  3.31594237e-05  1.10104065e-01 -3.99903809e-01  5.68043913e-05 -1.30935012e-01
 -5.57851633e-05  2.38471696e-05  5.92869111e-01  3.53323125e-01  6.03223040e-02
  3.43962714e-01 -2.27513909e-01 -7.29215043e-02  2.64739452e-01  3.51006167e-05
  3.24152028e-02 -1.17648799e-01 -3.81623352e-05 -3.79251323e-01 -4.40792155e-05
 -2.84563640e-05  2.66738739e-01  1.59022313e-01  5.03412571e-01  4.31888041e-01
  4.96196076e-02 -1.80433365e-01 -7.71551663e-01  5.03520732e-01  4.31985434e-01
  4.97517653e-02 -1.80612476e-01  7.71635523e-01  6.17850289e-03 -2.80682862e-01
 -2.39458797e-01  2.35425909e-02 -8.55045560e-02  2.44723942e-04 -8.19148253e-02
  2.97420842e-01  2.60824266e-04 -5.89038336e-01 -1.04284509e-04  3.01536854e-04
 -5.36238376e-01 -3.19618623e-01 -1.07302491e-01 -6.88229230e-01  7.90359079e-01
  1.15059544e-01 -4.17761579e-01  9.09882598e-06 -1.01994415e-01  3.70320738e-01
 -5.39182123e-05 -5.82088599e-01 -4.38543296e-05 -8.68719669e-05  2.19121988e-01
  1.30587989e-01  1.03394915e-01 -2.39391385e-02  1.04446996e-01 -3.79217029e-01
  9.98066298e-02  1.03760743e-01 -2.36512142e-02  1.04504030e-01 -3.79463051e-01
 -9.95003820e-02 -1.27152430e-05  1.44305669e-04  9.50119096e-05  5.47156842e-05
  1.22097208e-06  1.02546737e+00  7.84260013e-05 -9.59614486e-05  9.68632797e-01
  2.33759957e-04 -2.08259416e-01  7.56351314e-01  1.19550252e-04  1.18514586e-04
  1.95974184e-05  1.27637111e-04 -1.51801054e-04 -1.09512605e-05  6.87705723e-05
  1.48839346e-01 -2.37129035e-06 -5.40688045e-05 -3.21572271e-01  1.41326675e-04
  1.27409298e-01 -4.61970123e-01 -1.04467990e-04 -9.11537869e-05 -7.55477745e-01
 -5.78354634e-01 -1.46213667e-01  5.31248400e-01  7.30496826e-01  7.55335053e-01
  5.78309919e-01  1.46264759e-01 -5.31149167e-01  7.30342269e-01  6.45007128e-10
  8.05010986e-10 -4.51916381e-09  2.48214788e-06  6.78803698e-07  1.72466177e-04
  2.12871371e-06  5.74853023e-07  1.75054376e-04 -3.38734819e-05  3.64503170e-01
  1.00509955e-01  2.95569085e-05 -1.13349387e-05  1.30115588e-09  3.70463729e-09
  8.65510134e-09  4.23770191e-07  1.19344331e-07  2.36704864e-05 -1.00809647e-06
 -2.67938613e-07 -6.14101418e-05  8.63025610e-05 -9.28226450e-01 -2.55733449e-01
 -7.71880874e-05  3.21492130e-05 -1.36485140e-04 -9.65747123e-05 -1.54495717e-01
 -4.24439965e-02  1.31309144e-04  1.36479254e-04  9.65745607e-05  1.54487108e-01
  4.24416100e-02  1.14708974e-04  1.37200865e-01 -8.81138109e-01 -9.75550573e-01
  1.15405229e-01 -4.19183807e-01 -9.91701706e-05 -1.22832227e-02  4.45169962e-02
 -4.18903093e-05 -1.02055043e+00 -1.17754649e-04  5.96961303e-05  1.02796937e-01
  6.12516498e-02 -6.04804294e-02 -4.53696690e-01  7.80646447e-01  5.45816229e-02
 -1.98185697e-01 -1.70738233e-05 -9.16274164e-02  3.32718123e-01  3.73792355e-05
  5.17524135e-01  6.62547423e-05 -7.95251937e-06 -2.55191008e-01 -1.52082581e-01
  6.35772149e-01  2.52888771e-01  1.56652083e-01 -5.69055913e-01 -4.72666877e-01
  6.35669867e-01  2.52839508e-01  1.56703584e-01 -5.69058676e-01  4.72507306e-01
  6.03983377e-06 -2.64317339e-05 -3.09537251e-05  1.77409741e-01  4.88277974e-02
 -9.53348190e-06  1.13793073e-01  3.13018451e-02 -6.11334069e-06 -1.34627383e-05
 -5.78896588e-05  2.07207974e-05  3.49880493e-01 -5.86981128e-01  1.23412648e-06
  1.01994734e-05 -2.96438538e-05  1.52505039e-03  4.22338289e-04 -8.28775155e-08
 -2.90763386e-01 -8.00896147e-02  1.56050709e-05  1.08812293e-05 -8.49888473e-05
  3.23810111e-05  5.32218697e-01 -8.92922928e-01  3.41757431e-05  1.71538536e-05
  7.68399844e-02  2.11588385e-02 -4.75861111e-05  3.41582226e-05  1.71505016e-05
  7.68390796e-02  2.11585885e-02  3.93196363e-05 -1.79011151e-06  2.38166406e-05
 -6.40581421e-06  2.06575954e-05 -7.31049326e-06  3.47270613e-01 -1.78604157e-06
  7.02227251e-06  2.72909625e-03  1.48343666e-04 -3.06613071e-01  1.11342408e+00
  3.78787571e-05  9.21432136e-05 -4.04138585e-07 -3.46782886e-06  1.07509484e-05
  3.66135385e-06 -3.06092626e-06  5.25007674e-02  1.76628877e-05 -1.18662045e-05
  2.68234693e-01  1.15199648e-04 -2.51704396e-01  9.13885821e-01  3.15338528e-05
  7.58907896e-05 -4.67215752e-01 -1.19491348e-03 -3.27232212e-02  1.19016066e-01
  4.80472967e-01  4.67184478e-01  1.19579367e-03  3.27924620e-02 -1.19080183e-01
  4.80433278e-01  1.61440448e-01 -1.28275865e+00 -7.08711719e-01 -2.38793657e-01
  8.67032664e-01  6.31512974e-05 -1.19421271e-01  4.33598515e-01  3.23446887e-05
  2.77619127e-01  1.55327127e-05 -7.60197704e-05  4.99502904e-01  2.97708567e-01
  1.19341205e-02 -2.42185107e-01  1.82522199e+00 -6.83977782e-02  2.48343707e-01
  1.81931829e-05 -2.95488950e-01  1.07289566e+00  7.85539817e-05 -6.17656011e-01
 -3.97802133e-05  1.45787915e-04 -9.24840181e-01 -5.51243609e-01  7.59591271e-02
  3.71453426e-02 -2.44417382e-03  8.84565380e-03 -8.65704055e-02  7.59576579e-02
  3.71444804e-02 -2.43111776e-03  8.83199157e-03  8.65706313e-02
Total SCF Density                          R   N=         741
  2.08852089e+00 -1.84041935e-01  5.86621169e-01 -1.06518156e-01  1.40172279e-01
  5.33789109e-02  8.69716216e-04  2.46185777e-03 -2.29239763e-02  2.87640953e-01
 -3.15665413e-03 -8.94209219e-03  8.32282980e-02 -4.23010212e-02  4.29591497e-01
 -5.32162500e-07 -6.46313618e-07  2.53642842e-06  6.91857199e-06  4.30886363e-06
  4.27089355e-01  9.57592142e-03 -1.17350789e-02 -7.48765704e-03  1.49616069e-01
  1.77637619e-02 -1.41879466e-06  8.18445026e-02 -3.47649722e-02  4.25943160e-02
  2.71776031e-02  1.77648138e-02  9.00019868e-02 -3.00860732e-06  1.68988459e-02
  2.51345861e-02 -1.59264990e-06  7.34949273e-07  3.23012564e-07 -1.23854285e-06
 -3.62101004e-06  1.12737235e-01 -1.35915163e-06 -3.08017536e-06  4.52900290e-02
  3.85223756e-03 -3.51565117e-03  3.17744297e-03 -5.47896204e-03  1.98948060e-02
  3.43588861e-06 -1.00848181e-03  3.66185248e-03 -3.72296020e-07  1.09481886e-03
  4.67519185e-07 -6.50540950e-08  3.69362251e-07 -2.59358215e-06  1.30202068e-06