 Entering Gaussian System, Link 0=g09
 Input=/home/ajs99778/chem/formaldehyde_for_icon/freq.com
 Output=/home/ajs99778/chem/formaldehyde_for_icon/freq.log
 Initial command:
 /usr/local/apps/eb/gaussian/09-Intel-SSE4_2/g09/l1.exe "/lscratch/ajs99778/1812208.sapelo2/Gau-252393.inp" -scrdir="/lscratch/ajs99778/1812208.sapelo2/"
 Default is to use a total of   2 processors:
                                2 via shared-memory
                                1 via Linda
 Entering Link 1 = /usr/local/apps/eb/gaussian/09-Intel-SSE4_2/g09/l1.exe PID=    252394.
  
 Copyright (c) 1988,1990,1992,1993,1995,1998,2003,2009,2013,
            Gaussian, Inc.  All Rights Reserved.
  
 This is part of the Gaussian(R) 09 program.  It is based on
 the Gaussian(R) 03 system (copyright 2003, Gaussian, Inc.),
 the Gaussian(R) 98 system (copyright 1998, Gaussian, Inc.),
 the Gaussian(R) 94 system (copyright 1995, Gaussian, Inc.),
 the Gaussian 92(TM) system (copyright 1992, Gaussian, Inc.),
 the Gaussian 90(TM) system (copyright 1990, Gaussian, Inc.),
 the Gaussian 88(TM) system (copyright 1988, Gaussian, Inc.),
 the Gaussian 86(TM) system (copyright 1986, Carnegie Mellon
 University), and the Gaussian 82(TM) system (copyright 1983,
 Carnegie Mellon University). Gaussian is a federally registered
 trademark of Gaussian, Inc.
  
 This software contains proprietary and confidential information,
 including trade secrets, belonging to Gaussian, Inc.
  
 This software is provided under written license and may be
 used, copied, transmitted, or stored only in accord with that
 written license.
  
 The following legend is applicable only to US Government
 contracts under FAR:
  
                    RESTRICTED RIGHTS LEGEND
  
 Use, reproduction and disclosure by the US Government is
 subject to restrictions as set forth in subparagraphs (a)
 and (c) of the Commercial Computer Software - Restricted
 Rights clause in FAR 52.227-19.
  
 Gaussian, Inc.
 340 Quinnipiac St., Bldg. 40, Wallingford CT 06492
  
  
 ---------------------------------------------------------------
 Warning -- This program may not be used in any manner that
 competes with the business of Gaussian, Inc. or will provide
 assistance to any competitor of Gaussian, Inc.  The licensee
 of this program is prohibited from giving any competitor of
 Gaussian, Inc. access to this program.  By using this program,
 the user acknowledges that Gaussian, Inc. is engaged in the
 business of creating and licensing software in the field of
 computational chemistry and represents and warrants to the
 licensee that it is not a competitor of Gaussian, Inc. and that
 it will not use this program in any manner prohibited above.
 ---------------------------------------------------------------
  

 Cite this work as:
 Gaussian 09, Revision D.01,
 M. J. Frisch, G. W. Trucks, H. B. Schlegel, G. E. Scuseria, 
 M. A. Robb, J. R. Cheeseman, G. Scalmani, V. Barone, B. Mennucci, 
 G. A. Petersson, H. Nakatsuji, M. Caricato, X. Li, H. P. Hratchian, 
 A. F. Izmaylov, J. Bloino, G. Zheng, J. L. Sonnenberg, M. Hada, 
 M. Ehara, K. Toyota, R. Fukuda, J. Hasegawa, M. Ishida, T. Nakajima, 
 Y. Honda, O. Kitao, H. Nakai, T. Vreven, J. A. Montgomery, Jr., 
 J. E. Peralta, F. Ogliaro, M. Bearpark, J. J. Heyd, E. Brothers, 
 K. N. Kudin, V. N. Staroverov, T. Keith, R. Kobayashi, J. Normand, 
 K. Raghavachari, A. Rendell, J. C. Burant, S. S. Iyengar, J. Tomasi, 
 M. Cossi, N. Rega, J. M. Millam, M. Klene, J. E. Knox, J. B. Cross, 
 V. Bakken, C. Adamo, J. Jaramillo, R. Gomperts, R. E. Stratmann, 
 O. Yazyev, A. J. Austin, R. Cammi, C. Pomelli, J. W. Ochterski, 
 R. L. Martin, K. Morokuma, V. G. Zakrzewski, G. A. Voth, 
 P. Salvador, J. J. Dannenberg, S. Dapprich, A. D. Daniels, 
 O. Farkas, J. B. Foresman, J. V. Ortiz, J. Cioslowski, 
 and D. J. Fox, Gaussian, Inc., Wallingford CT, 2013.
 
 ******************************************
 Gaussian 09:  ES64L-G09RevD.01 24-Apr-2013
                 6-Dec-2019 
 ******************************************
 ----------
 # am1 freq
 ----------
 1/10=4,30=1,38=1/1,3;
 2/12=2,17=6,18=5,40=1/2;
 3/5=2,16=1,25=1,41=700000,71=2,140=1/1,2,3;
 4/35=1/1;
 5/5=2,35=1,38=5,98=1/2;
 8/6=4,10=90,11=11/1;
 11/6=1,8=1,9=11,15=111,16=1/1,2,10;
 10/6=1/2;
 6/7=2,8=2,9=2,10=2,18=1,28=1/1;
 7/8=1,10=1,25=1/1,2,3,16;
 1/10=4,30=1/3;
 99//99;
 ----
 icon
 ----
 Symbolic Z-matrix:
 Charge =  0 Multiplicity = 1
 O                     0.        1.96658   0. 
 C                     0.        0.73923   0. 
 H                     0.93947   0.14709   0. 
 H                    -0.93947   0.14709   0. 
 

 GradGradGradGradGradGradGradGradGradGradGradGradGradGradGradGradGradGrad
 Berny optimization.
 Initialization pass.
 Trust Radius=3.00D-01 FncErr=1.00D-07 GrdErr=1.00D-07
 Number of steps in this run=      2 maximum allowed number of steps=      2.
 GradGradGradGradGradGradGradGradGradGradGradGradGradGradGradGradGradGrad

                          Input orientation:                          
 ---------------------------------------------------------------------
 Center     Atomic      Atomic             Coordinates (Angstroms)
 Number     Number       Type             X           Y           Z
 ---------------------------------------------------------------------
      1          8           0        0.000000    1.966584    0.000000
      2          6           0        0.000000    0.739229    0.000000
      3          1           0        0.939471    0.147094    0.000000
      4          1           0       -0.939471    0.147094    0.000000
 ---------------------------------------------------------------------
                    Distance matrix (angstroms):
                    1          2          3          4
     1  O    0.000000
     2  C    1.227355   0.000000
     3  H    2.047718   1.110509   0.000000
     4  H    2.047718   1.110509   1.878942   0.000000
 Stoichiometry    CH2O
 Framework group  C2V[C2(CO),SGV(H2)]
 Deg. of freedom     3
 Full point group                 C2V     NOp   4
 Largest Abelian subgroup         C2V     NOp   4
 Largest concise Abelian subgroup C2      NOp   2
                         Standard orientation:                         
 ---------------------------------------------------------------------
 Center     Atomic      Atomic             Coordinates (Angstroms)
 Number     Number       Type             X           Y           Z
 ---------------------------------------------------------------------
      1          8           0        0.000000    0.000000    0.687694
      2          6           0        0.000000    0.000000   -0.539661
      3          1           0        0.000000    0.939471   -1.131796
      4          1           0        0.000000   -0.939471   -1.131796
 ---------------------------------------------------------------------
 Rotational constants (GHZ):    284.0764943     37.5088474     33.1339166
 Standard basis: VSTO-6G (5D, 7F)
 There are     5 symmetry adapted cartesian basis functions of A1  symmetry.
 There are     0 symmetry adapted cartesian basis functions of A2  symmetry.
 There are     2 symmetry adapted cartesian basis functions of B1  symmetry.
 There are     3 symmetry adapted cartesian basis functions of B2  symmetry.
 There are     5 symmetry adapted basis functions of A1  symmetry.
 There are     0 symmetry adapted basis functions of A2  symmetry.
 There are     2 symmetry adapted basis functions of B1  symmetry.
 There are     3 symmetry adapted basis functions of B2  symmetry.
    10 basis functions,    60 primitive gaussians,    10 cartesian basis functions
     6 alpha electrons        6 beta electrons
       nuclear repulsion energy        31.7108974069 Hartrees.
 Integral buffers will be    131072 words long.
 Regular integral format.
 Two-electron integral symmetry is turned off.
 Do NDO integrals.
 One-electron integrals computed using PRISM.
 NBasis=    10 RedAO= T EigKep=  1.00D+00  NBF=     5     0     2     3
 NBsUse=    10 1.00D-06 EigRej= -1.00D+00 NBFU=     5     0     2     3
 Simple Huckel Guess.
 Initial guess orbital symmetries:
       Occupied  (A1) (A1) (B2) (B1) (A1) (B2)
       Virtual   (B1) (B2) (A1) (A1)
 The electronic state of the initial guess is 1-A1.
 Overlap will be assumed to be unity.
 Keep J ints in memory in canonical form, NReq=883217.
 Requested convergence on RMS density matrix=1.00D-08 within 128 cycles.
 Requested convergence on MAX density matrix=1.00D-06.
 Requested convergence on             energy=1.00D-06.
 No special actions if energy rises.
 Fock symm off for IB=3 I1=    1 I=    6 J=    3 Cut=1.00D-07 Err=1.05D-03
 Fock matrix is not symmetric: symmetry in diagonalization turned off.
 SCF Done:  E(RAM1) = -0.502432959601E-01 A.U. after   12 cycles
            NFock= 11  Conv=0.36D-08     -V/T= 0.9932
 Range of M.O.s used for correlation:     1    10
 NBasis=    10 NAE=     6 NBE=     6 NFC=     0 NFV=     0
 NROrb=     10 NOA=     6 NOB=     6 NVA=     4 NVB=     4
 Symmetrizing basis deriv contribution to polar:
 IMax=3 JMax=2 DiffMx= 0.00D+00
 G2DrvN: will do     5 centers at a time, making    1 passes.
 Calling FoFCou, ICntrl=  3107 FMM=F I1Cent=   0 AccDes= 0.00D+00.
 End of G2Drv F.D. properties file   721 does not exist.
 End of G2Drv F.D. properties file   722 does not exist.
 End of G2Drv F.D. properties file   788 does not exist.
          IDoAtm=1111
          Differentiating once with respect to electric field.
                with respect to dipole field.
          Differentiating once with respect to nuclear coordinates.
          Electric field/nuclear overlap derivatives assumed to be zero.
 Keep J ints in memory in canonical form, NReq=865762.
          There are    12 degrees of freedom in the 1st order CPHF.  IDoFFX=4 NUNeed=    12.
 LinEq1:  Iter=  0 NonCon=    12 RMS=5.39D-01 Max=1.96D+00 NDo=    12
 AX will form    12 AO Fock derivatives at one time.
 LinEq1:  Iter=  1 NonCon=    12 RMS=5.60D-02 Max=1.63D-01 NDo=    12
 LinEq1:  Iter=  2 NonCon=    12 RMS=5.03D-03 Max=1.66D-02 NDo=    12
 LinEq1:  Iter=  3 NonCon=    12 RMS=5.76D-04 Max=1.27D-03 NDo=    12
 LinEq1:  Iter=  4 NonCon=    12 RMS=2.76D-05 Max=8.07D-05 NDo=    12
 LinEq1:  Iter=  5 NonCon=     9 RMS=3.63D-06 Max=1.24D-05 NDo=    12
 LinEq1:  Iter=  6 NonCon=     6 RMS=1.21D-07 Max=4.38D-07 NDo=    12
 LinEq1:  Iter=  7 NonCon=     0 RMS=5.05D-09 Max=1.82D-08 NDo=    12
 Linear equations converged to 1.000D-08 1.000D-07 after     7 iterations.
 Isotropic polarizability for W=    0.000000       10.59 Bohr**3.
 End of Minotr F.D. properties file   721 does not exist.
 End of Minotr F.D. properties file   722 does not exist.
 End of Minotr F.D. properties file   788 does not exist.

 **********************************************************************

            Population analysis using the SCF density.

 **********************************************************************

 Orbital symmetries:
       Occupied  (A1) (A1) (B2) (A1) (B1) (B2)
       Virtual   (B1) (A1) (B2) (A1)
 The electronic state is 1-A1.
 Alpha  occ. eigenvalues --   -1.43551  -0.92101  -0.62981  -0.59753  -0.53447
 Alpha  occ. eigenvalues --   -0.39628
 Alpha virt. eigenvalues --    0.02914   0.11636   0.14688   0.22292
          Condensed to atoms (all electrons):
               1          2          3          4
     1  O    6.275926   0.000000   0.000000   0.000000
     2  C    0.000000   3.861608   0.000000   0.000000
     3  H    0.000000   0.000000   0.931233   0.000000
     4  H    0.000000   0.000000   0.000000   0.931233
 Mulliken charges:
               1
     1  O   -0.275926
     2  C    0.138392
     3  H    0.068767
     4  H    0.068767
 Sum of Mulliken charges =   0.00000
 Mulliken charges with hydrogens summed into heavy atoms:
               1
     1  O   -0.275926
     2  C    0.275926
 APT charges:
               1
     1  O   -0.615409
     2  C    0.633187
     3  H   -0.008889
     4  H   -0.008889
 Sum of APT charges =   0.00000
 APT charges with hydrogens summed into heavy atoms:
               1
     1  O   -0.615409
     2  C    0.615409
 Charge=              0.0000 electrons
 Dipole moment (field-independent basis, Debye):
    X=              0.0000    Y=              0.0000    Z=             -2.3177  Tot=              2.3177
 N-N= 3.171089740690D+01 E-N=-4.713708307102D+01  KE=-7.355988550899D+00
 Symmetry A1   KE=-4.811633699431D+00
 Symmetry A2   KE= 0.000000000000D+00
 Symmetry B1   KE=-8.501265047973D-01
 Symmetry B2   KE=-1.694228346671D+00
  Exact polarizability:   2.464   0.000  10.618   0.000   0.000  18.681
 Approx polarizability:   1.839   0.000   5.639   0.000   0.000  16.506
 Calling FoFJK, ICntrl=    100127 FMM=F ISym2X=1 I1Cent= 0 IOpClX= 0 NMat=1 NMatS=1 NMatT=0.
 Full mass-weighted force constant matrix:
 Low frequencies ---   -0.0545   -0.0128   -0.0002    6.2286    6.6176    9.4440
 Low frequencies --- 1164.5957 1175.8119 1443.0162
 Diagonal vibrational polarizability:
        0.0847433       0.8558713       1.0596784
 Harmonic frequencies (cm**-1), IR intensities (KM/Mole), Raman scattering
 activities (A**4/AMU), depolarization ratios for plane and unpolarized
 incident light, reduced masses (AMU), force constants (mDyne/A),
 and normal coordinates:
                      1                      2                      3
                     B1                     B2                     A1
 Frequencies --   1164.5957              1175.8119              1443.0162
 Red. masses --      1.3646                 1.3729                 1.0538
 Frc consts  --      1.0904                 1.1184                 1.2929
 IR Inten    --      4.2709                41.9352                 6.2526
  Atom  AN      X      Y      Z        X      Y      Z        X      Y      Z
     1   8     0.04   0.00   0.00     0.00   0.08   0.00     0.00   0.00   0.04
     2   6    -0.17   0.00   0.00     0.00  -0.16   0.00     0.00   0.00   0.05
     3   1     0.70   0.00   0.00     0.00   0.31   0.62     0.00  -0.40  -0.58
     4   1     0.70   0.00   0.00     0.00   0.31  -0.62     0.00   0.40  -0.58
                      4                      5                      6
                     A1                     B2                     A1
 Frequencies --   2052.9973              3084.0726              3120.0857
 Red. masses --     10.2852                 1.0957                 1.0517
 Frc consts  --     25.5412                 6.1401                 6.0319
 IR Inten    --    152.9639                13.9952                 0.7985
  Atom  AN      X      Y      Z        X      Y      Z        X      Y      Z
     1   8     0.00   0.00   0.53     0.00   0.01   0.00     0.00   0.00   0.00
     2   6     0.00   0.00  -0.67     0.00   0.09   0.00     0.00   0.00   0.06
     3   1     0.00   0.27  -0.23     0.00  -0.57   0.41     0.00   0.60  -0.38
     4   1     0.00  -0.27  -0.23     0.00  -0.57  -0.41     0.00  -0.60  -0.38

 -------------------
 - Thermochemistry -
 -------------------
 Temperature   298.150 Kelvin.  Pressure   1.00000 Atm.
 Atom     1 has atomic number  8 and mass  15.99491
 Atom     2 has atomic number  6 and mass  12.00000
 Atom     3 has atomic number  1 and mass   1.00783
 Atom     4 has atomic number  1 and mass   1.00783
 Molecular mass:    30.01056 amu.
 Principal axes and moments of inertia in atomic units:
                           1         2         3
     Eigenvalues --     6.35301  48.11508  54.46809
           X            0.00000   0.00000   1.00000
           Y            0.00000   1.00000   0.00000
           Z            1.00000   0.00000   0.00000
 This molecule is an asymmetric top.
 Rotational symmetry number  2.
 Rotational temperatures (Kelvin)     13.63351     1.80014     1.59018
 Rotational constants (GHZ):         284.07649    37.50885    33.13392
 Zero-point vibrational energy      72018.7 (Joules/Mol)
                                   17.21287 (Kcal/Mol)
 Vibrational temperatures:   1675.59  1691.73  2076.18  2953.80  4437.29
          (Kelvin)           4489.10
 
 Zero-point correction=                           0.027430 (Hartree/Particle)
 Thermal correction to Energy=                    0.030307
 Thermal correction to Enthalpy=                  0.031252
 Thermal correction to Gibbs Free Energy=         0.006391
 Sum of electronic and zero-point Energies=             -0.022813
 Sum of electronic and thermal Energies=                -0.019936
 Sum of electronic and thermal Enthalpies=              -0.018992
 Sum of electronic and thermal Free Energies=           -0.043852
 
                     E (Thermal)             CV                S
                      KCal/Mol        Cal/Mol-Kelvin    Cal/Mol-Kelvin
 Total                   19.018              6.513             52.323
 Electronic               0.000              0.000              0.000
 Translational            0.889              2.981             36.130
 Rotational               0.889              2.981             16.083
 Vibrational             17.241              0.552              0.110
                       Q            Log10(Q)             Ln(Q)
 Total Bot       0.114889D-02         -2.939720         -6.768955
 Total V=0       0.475760D+10          9.677388         22.283010
 Vib (Bot)       0.243442D-12        -12.613604        -29.043897
 Vib (V=0)       0.100810D+01          0.003504          0.008068
 Electronic      0.100000D+01          0.000000          0.000000
 Translational   0.646199D+07          6.810366         15.681448
 Rotational      0.730328D+03          2.863518          6.593494
 ***** Axes restored to original set *****
 -------------------------------------------------------------------
 Center     Atomic                   Forces (Hartrees/Bohr)
 Number     Number              X              Y              Z
 -------------------------------------------------------------------
      1        8           0.000000000   -0.000039714    0.000000000
      2        6           0.000000000    0.000056926    0.000000000
      3        1          -0.000006326   -0.000008606    0.000000000
      4        1           0.000006326   -0.000008606    0.000000000
 -------------------------------------------------------------------
 Cartesian Forces:  Max     0.000056926 RMS     0.000020506

 GradGradGradGradGradGradGradGradGradGradGradGradGradGradGradGradGradGrad
 Berny optimization.
 Search for a local minimum.
 Step number   1 out of a maximum of    2
 All quantities printed in internal units (Hartrees-Bohrs-Radians)
 Second derivative matrix not updated -- analytic derivatives used.
 The second derivative matrix:
                          X1        Y1        Z1        X2        Y2
           X1           0.06293
           Y1           0.00000   1.16296
           Z1           0.00000   0.00000   0.01724
           X2          -0.06245   0.00000   0.00000   0.51205
           Y2           0.00000  -1.04572   0.00000   0.00000   1.23848
           Z2           0.00000   0.00000  -0.05293   0.00000   0.00000
           X3          -0.00024   0.01938   0.00000  -0.22480   0.10771
           Y3           0.04125  -0.05862   0.00000   0.10091  -0.09638
           Z3           0.00000   0.00000   0.01785   0.00000   0.00000
           X4          -0.00024  -0.01938   0.00000  -0.22480  -0.10771
           Y4          -0.04125  -0.05862   0.00000  -0.10091  -0.09638
           Z4           0.00000   0.00000   0.01785   0.00000   0.00000
                          Z2        X3        Y3        Z3        X4
           Z2           0.16260
           X3           0.00000   0.25210
           Y3           0.00000  -0.13462   0.14925
           Z3          -0.05484   0.00000   0.00000   0.01850
           X4           0.00000  -0.02706  -0.00753   0.00000   0.25210
           Y4           0.00000   0.00753   0.00576   0.00000   0.13462
           Z4          -0.05484   0.00000   0.00000   0.01849   0.00000
                          Y4        Z4
           Y4           0.14925
           Z4           0.00000   0.01850
 ITU=  0
     Eigenvalues ---    0.10671   0.14645   0.19507   0.43657   0.72608
     Eigenvalues ---    2.23812
 Angle between quadratic step and forces=  64.87 degrees.
 ClnCor:  largest displacement from symmetrization is 2.42D-15 for atom     4.
 Linear search not attempted -- first point.
 ClnCor:  largest displacement from symmetrization is 1.67D-16 for atom     3.
 TrRot=  0.000000  0.000021  0.000000  0.000000  0.000000  0.000000
 Variable       Old X    -DE/DX   Delta X   Delta X   Delta X     New X
                                 (Linear)    (Quad)   (Total)
    X1        0.00000   0.00000   0.00000   0.00000   0.00000   0.00000
    Y1        3.71631  -0.00004   0.00000   0.00002   0.00004   3.71634
    Z1        0.00000   0.00000   0.00000   0.00000   0.00000   0.00000
    X2        0.00000   0.00000   0.00000   0.00000   0.00000   0.00000
    Y2        1.39694   0.00006   0.00000   0.00006   0.00008   1.39702
    Z2        0.00000   0.00000   0.00000   0.00000   0.00000   0.00000
    X3        1.77534  -0.00001   0.00000  -0.00008  -0.00008   1.77526
    Y3        0.27797  -0.00001   0.00000  -0.00008  -0.00006   0.27791
    Z3        0.00000   0.00000   0.00000   0.00000   0.00000   0.00000
    X4       -1.77534   0.00001   0.00000   0.00008   0.00008  -1.77526
    Y4        0.27797  -0.00001   0.00000  -0.00008  -0.00006   0.27791
    Z4        0.00000   0.00000   0.00000   0.00000   0.00000   0.00000
         Item               Value     Threshold  Converged?
 Maximum Force            0.000057     0.000450     YES
 RMS     Force            0.000021     0.000300     YES
 Maximum Displacement     0.000084     0.001800     YES
 RMS     Displacement     0.000049     0.001200     YES
 Predicted change in Energy=-2.656122D-09
 Optimization completed.
    -- Stationary point found.
 GradGradGradGradGradGradGradGradGradGradGradGradGradGradGradGradGradGrad

 1\1\GINC-N634\Freq\RAM1\ZDO\C1H2O1\AJS99778\06-Dec-2019\0\\# am1 freq\
 \icon\\0,1\O,0.,1.966584,0.\C,0.,0.739229,0.\H,0.939471,0.147094,0.\H,
 -0.939471,0.147094,0.\\Version=ES64L-G09RevD.01\State=1-A1\HF=-0.05024
 33\RMSD=3.622e-09\RMSF=2.051e-05\ZeroPoint=0.0274305\Thermal=0.0303075
 \Dipole=0.,-0.9118496,0.\DipoleDeriv=-0.5244836,0.,0.,0.,-1.0089517,0.
 ,0.,0.,-0.3127909,0.6896955,0.,0.,0.,1.0636336,0.,0.,0.,0.1462334,-0.0
 82606,-0.0488419,0.,-0.0337256,-0.027341,0.,0.,0.,0.0832786,-0.082606,
 0.0488419,0.,0.0337256,-0.027341,0.,0.,0.,0.0832786\Polar=10.6175202,0
 .,18.6807671,0.,0.,2.4639464\HyperPolar=0.,-49.764582,0.,-37.1683931,0
 .,0.,0.,0.,-5.4432087,0.\PG=C02V [C2(C1O1),SGV(H2)]\NImag=0\\0.0629327
 1,0.,1.16296368,0.,0.,0.01723858,-0.06245338,0.,0.,0.51204681,0.,-1.04
 571637,0.,0.,1.23847989,0.,0.,-0.05293455,0.,0.,0.16260439,-0.00023966
 ,0.01938109,0.,-0.22479670,0.10771072,0.,0.25209759,0.04124880,-0.0586
 2378,0.,0.10090627,-0.09638163,0.,-0.13462343,0.14924780,0.,0.,0.01784
 812,0.,0.,-0.05483510,0.,0.,0.01849522,-0.00023966,-0.01938109,0.,-0.2
 2479670,-0.10771072,0.,-0.02706126,-0.00753165,0.,0.25209759,-0.041248
 80,-0.05862378,0.,-0.10090627,-0.09638163,0.,0.00753165,0.00575760,0.,
 0.13462343,0.14924780,0.,0.,0.01784812,0.,0.,-0.05483510,0.,0.,0.01849
 182,0.,0.,0.01849522\\0.,0.00003971,0.,0.,-0.00005693,0.,0.00000633,0.
 00000861,0.,-0.00000633,0.00000861,0.\\\@


 SUCCESS IS COUNTED SWEETEST
 BY THOSE WHO NE'ER SUCCEED.
 TO COMPREHEND NECTAR
 REQUIRES SOREST NEED.
           EMILY DICKINSON
 Job cpu time:       0 days  0 hours  0 minutes  1.3 seconds.
 File lengths (MBytes):  RWF=      5 Int=      0 D2E=      0 Chk=      2 Scr=      1
 Normal termination of Gaussian 09 at Fri Dec  6 11:05:26 2019.
