 Entering Gaussian System, Link 0=g09
 Initial command:
 /sw/group/lms/sw/g09_D01/g09/l1.exe "/work/job.575543/Gau-45328.inp" -scrdir="/work/job.575543/"
 Default is to use a total of  28 processors:
                               28 via shared-memory
                                1 via Linda
 Entering Link 1 = /sw/group/lms/sw/g09_D01/g09/l1.exe PID=     45329.
  
 Copyright (c) 1988,1990,1992,1993,1995,1998,2003,2009,2013,
            Gaussian, Inc.  All Rights Reserved.
  
 This is part of the Gaussian(R) 09 program.  It is based on
 the Gaussian(R) 03 system (copyright 2003, Gaussian, Inc.),
 the Gaussian(R) 98 system (copyright 1998, Gaussian, Inc.),
 the Gaussian(R) 94 system (copyright 1995, Gaussian, Inc.),
 the Gaussian 92(TM) system (copyright 1992, Gaussian, Inc.),
 the Gaussian 90(TM) system (copyright 1990, Gaussian, Inc.),
 the Gaussian 88(TM) system (copyright 1988, Gaussian, Inc.),
 the Gaussian 86(TM) system (copyright 1986, Carnegie Mellon
 University), and the Gaussian 82(TM) system (copyright 1983,
 Carnegie Mellon University). Gaussian is a federally registered
 trademark of Gaussian, Inc.
  
 This software contains proprietary and confidential information,
 including trade secrets, belonging to Gaussian, Inc.
  
 This software is provided under written license and may be
 used, copied, transmitted, or stored only in accord with that
 written license.
  
 The following legend is applicable only to US Government
 contracts under FAR:
  
                    RESTRICTED RIGHTS LEGEND
  
 Use, reproduction and disclosure by the US Government is
 subject to restrictions as set forth in subparagraphs (a)
 and (c) of the Commercial Computer Software - Restricted
 Rights clause in FAR 52.227-19.
  
 Gaussian, Inc.
 340 Quinnipiac St., Bldg. 40, Wallingford CT 06492
  
  
 ---------------------------------------------------------------
 Warning -- This program may not be used in any manner that
 competes with the business of Gaussian, Inc. or will provide
 assistance to any competitor of Gaussian, Inc.  The licensee
 of this program is prohibited from giving any competitor of
 Gaussian, Inc. access to this program.  By using this program,
 the user acknowledges that Gaussian, Inc. is engaged in the
 business of creating and licensing software in the field of
 computational chemistry and represents and warrants to the
 licensee that it is not a competitor of Gaussian, Inc. and that
 it will not use this program in any manner prohibited above.
 ---------------------------------------------------------------
  

 Cite this work as:
 Gaussian 09, Revision D.01,
 M. J. Frisch, G. W. Trucks, H. B. Schlegel, G. E. Scuseria, 
 M. A. Robb, J. R. Cheeseman, G. Scalmani, V. Barone, B. Mennucci, 
 G. A. Petersson, H. Nakatsuji, M. Caricato, X. Li, H. P. Hratchian, 
 A. F. Izmaylov, J. Bloino, G. Zheng, J. L. Sonnenberg, M. Hada, 
 M. Ehara, K. Toyota, R. Fukuda, J. Hasegawa, M. Ishida, T. Nakajima, 
 Y. Honda, O. Kitao, H. Nakai, T. Vreven, J. A. Montgomery, Jr., 
 J. E. Peralta, F. Ogliaro, M. Bearpark, J. J. Heyd, E. Brothers, 
 K. N. Kudin, V. N. Staroverov, T. Keith, R. Kobayashi, J. Normand, 
 K. Raghavachari, A. Rendell, J. C. Burant, S. S. Iyengar, J. Tomasi, 
 M. Cossi, N. Rega, J. M. Millam, M. Klene, J. E. Knox, J. B. Cross, 
 V. Bakken, C. Adamo, J. Jaramillo, R. Gomperts, R. E. Stratmann, 
 O. Yazyev, A. J. Austin, R. Cammi, C. Pomelli, J. W. Ochterski, 
 R. L. Martin, K. Morokuma, V. G. Zakrzewski, G. A. Voth, 
 P. Salvador, J. J. Dannenberg, S. Dapprich, A. D. Daniels, 
 O. Farkas, J. B. Foresman, J. V. Ortiz, J. Cioslowski, 
 and D. J. Fox, Gaussian, Inc., Wallingford CT, 2013.
 
 ******************************************
 Gaussian 09:  ES64L-G09RevD.01 24-Apr-2013
                 2-Feb-2018 
 ******************************************
 %chk=Sub-10-Cl-18-tBu.R.1_2a_r_down_a.Cf1.chk
 ---------------------------------------------------------
 #M06/genecp denfit freq=(hpmodes,noraman,temperature=298)
 ---------------------------------------------------------
 1/10=4,30=1,38=1,112=298000/1,3;
 2/12=2,17=6,18=5,40=1/2;
 3/5=7,11=2,16=1,17=8,25=1,30=1,71=2,74=-54,82=47,140=1/1,2,3;
 4//1;
 5/5=2,38=5,98=1/2;
 8/6=4,10=90,11=11/1;
 11/6=1,8=1,9=11,15=111,16=1/1,2,10;
 10/6=1/2;
 6/7=2,8=2,9=2,10=2,18=1,28=1/1;
 7/8=11,10=1,25=1/1,2,3,16;
 1/10=4,30=1/3;
 99//99;
 -------------------------------------------------------
 Sub-10-Cl-18-tBu/R/1_2a_r_down_a/Cf1 step 4 (attempt 1)
 -------------------------------------------------------
 Symbolic Z-matrix:
 Charge =  1 Multiplicity = 1
 C                    0    -0.9918    2.33718  -0.74605 
 C                    0    -1.1131    3.60367  -1.29165 
 C                    0    -0.08797   4.52109  -1.0539 
 C                    0     0.97394   4.15     -0.24954 
 H                    0     1.77168   4.84138   0.00908 
 C                    0     0.99558   2.84453   0.25859 
 N                    0     0.07291   1.93513  -0.01067 
 H                    0    -0.13839   5.52572  -1.46809 
 H                    0    -1.99522   3.86444  -1.87072 
 Cl                   0     2.26106   2.42566   1.36014 
 C                    0    -2.08748   1.36246  -0.81012 
 O                    0    -3.23624   1.74554  -1.35646 
 N                    0    -2.03225   0.19903  -0.26625 
 C                    0    -4.10171   0.58132  -1.27278 
 H                    0    -5.10168   0.93577  -1.01139 
 H                    0    -4.12551   0.12329  -2.26972 
 C                    0    -3.42264  -0.30135  -0.21795 
 C                    0    -4.01781  -0.18963   1.2101 
 H                    0    -3.44574  -1.35972  -0.51892 
 Pd                   0     0.07246  -0.44769  -0.13872 
 C                    0     4.86501   0.28118  -0.25596 
 C                    0     4.20745  -0.20075  -1.53696 
 C                    0     2.69087  -0.03604  -1.44911 
 C                    0     2.13426  -0.66421  -0.20464 
 C                    0     2.83139  -0.79189   0.9429 
 H                    0     4.594     0.35654  -2.40037 
 H                    0     2.44207   1.04108  -1.43076 
 C                    0    -0.86606  -2.46761  -2.10791 
 H                    0    -0.32155  -1.8379   -2.82188 
 H                    0    -1.91074  -2.13167  -2.08875 
 C                    0    -0.26058  -2.45369  -0.72965 
 C                    0     1.1464   -2.57603  -0.57051 
 C                    0    -1.0714   -3.16991   0.32574 
 H                    0    -2.13415  -2.88591   0.25855 
 H                    0    -0.71381  -2.92059   1.33979 
 H                    0     4.79824   1.3804   -0.1872 
 C                    0     4.22989  -0.258     1.00425 
 O                    0     4.81454  -0.2186    2.07186 
 H                    0     5.93542   0.04454  -0.21582 
 H                    0     4.45331  -1.2586   -1.71229 
 H                    0     2.20122  -0.42999  -2.35043 
 C                    0     2.3106   -1.33477   2.23395 
 H                    0     2.8952   -2.20246   2.57032 
 H                    0     2.4193   -0.57915   3.02351 
 H                    0     1.24982  -1.60678   2.17448 
 O                    0    -0.8933   -4.54463   0.04005 
 H                    0    -1.43712  -5.0839    0.63171 
 H                    0    -0.8655   -3.49918  -2.49513 
 C                    0     2.02538  -3.01306  -1.69683 
 H                    0     3.08631  -2.97885  -1.43263 
 H                    0     1.76101  -4.06565  -1.89113 
 H                    0     1.86679  -2.46981  -2.63426 
 H                    0     1.45766  -2.9545    0.40481 
 C                    0    -4.0772    1.261     1.69021 
 H                    0    -4.51511   1.29552   2.69653 
 H                    0    -3.07618   1.71044   1.76254 
 H                    0    -4.70158   1.89996   1.05069 
 C                    0    -5.42746  -0.78383   1.18164 
 H                    0    -5.41944  -1.82656   0.8309 
 H                    0    -5.85613  -0.78048   2.19262 
 H                    0    -6.11802  -0.21676   0.5422 
 C                    0    -3.17005  -0.99528   2.19409 
 H                    0    -3.58515  -0.89995   3.20637 
 H                    0    -3.17083  -2.06581   1.94485 
 H                    0    -2.12922  -0.64317   2.22669 
 

 GradGradGradGradGradGradGradGradGradGradGradGradGradGradGradGradGradGrad
 Berny optimization.
 Initialization pass.
 Trust Radius=3.00D-01 FncErr=1.00D-07 GrdErr=1.00D-07
 Number of steps in this run=      2 maximum allowed number of steps=      2.
 GradGradGradGradGradGradGradGradGradGradGradGradGradGradGradGradGradGrad

 Stoichiometry    C24H34ClN2O3Pd(1+)
 Framework group  C1[X(C24H34ClN2O3Pd)]
 Deg. of freedom   189
 Full point group                 C1      NOp   1
 Largest Abelian subgroup         C1      NOp   1
 Largest concise Abelian subgroup C1      NOp   1
                         Standard orientation:                         
 ---------------------------------------------------------------------
 Center     Atomic      Atomic             Coordinates (Angstroms)
 Number     Number       Type             X           Y           Z
 ---------------------------------------------------------------------
      1          6           0       -0.991798    2.337178   -0.746046
      2          6           0       -1.113096    3.603673   -1.291653
      3          6           0       -0.087967    4.521085   -1.053904
      4          6           0        0.973936    4.149998   -0.249539
      5          1           0        1.771681    4.841377    0.009077
      6          6           0        0.995581    2.844532    0.258589
      7          7           0        0.072912    1.935128   -0.010674
      8          1           0       -0.138389    5.525721   -1.468086
      9          1           0       -1.995222    3.864441   -1.870719
     10         17           0        2.261064    2.425661    1.360138
     11          6           0       -2.087482    1.362455   -0.810124
     12          8           0       -3.236236    1.745537   -1.356463
     13          7           0       -2.032253    0.199030   -0.266246
     14          6           0       -4.101711    0.581321   -1.272784
     15          1           0       -5.101679    0.935772   -1.011393
     16          1           0       -4.125511    0.123293   -2.269719
     17          6           0       -3.422636   -0.301352   -0.217947
     18          6           0       -4.017806   -0.189630    1.210095
     19          1           0       -3.445742   -1.359717   -0.518918
     20         46           0        0.072459   -0.447690   -0.138719
     21          6           0        4.865008    0.281178   -0.255956
     22          6           0        4.207450   -0.200749   -1.536961
     23          6           0        2.690868   -0.036039   -1.449109
     24          6           0        2.134260   -0.664208   -0.204640
     25          6           0        2.831394   -0.791889    0.942904
     26          1           0        4.594002    0.356538   -2.400367
     27          1           0        2.442065    1.041077   -1.430758
     28          6           0       -0.866057   -2.467610   -2.107912
     29          1           0       -0.321545   -1.837896   -2.821884
     30          1           0       -1.910735   -2.131666   -2.088754
     31          6           0       -0.260578   -2.453690   -0.729652
     32          6           0        1.146402   -2.576032   -0.570513
     33          6           0       -1.071403   -3.169909    0.325743
     34          1           0       -2.134153   -2.885913    0.258554
     35          1           0       -0.713809   -2.920591    1.339793
     36          1           0        4.798240    1.380402   -0.187202
     37          6           0        4.229894   -0.257997    1.004251
     38          8           0        4.814542   -0.218604    2.071859
     39          1           0        5.935415    0.044537   -0.215822
     40          1           0        4.453312   -1.258604   -1.712288
     41          1           0        2.201218   -0.429992   -2.350434
     42          6           0        2.310600   -1.334765    2.233946
     43          1           0        2.895199   -2.202462    2.570319
     44          1           0        2.419303   -0.579151    3.023508
     45          1           0        1.249819   -1.606775    2.174483
     46          8           0       -0.893301   -4.544627    0.040053
     47          1           0       -1.437124   -5.083895    0.631714
     48          1           0       -0.865495   -3.499180   -2.495128
     49          6           0        2.025377   -3.013064   -1.696831
     50          1           0        3.086308   -2.978854   -1.432628
     51          1           0        1.761010   -4.065650   -1.891125
     52          1           0        1.866792   -2.469810   -2.634264
     53          1           0        1.457657   -2.954499    0.404813
     54          6           0       -4.077197    1.260995    1.690211
     55          1           0       -4.515109    1.295521    2.696525
     56          1           0       -3.076182    1.710440    1.762543
     57          1           0       -4.701577    1.899963    1.050688
     58          6           0       -5.427464   -0.783831    1.181641
     59          1           0       -5.419443   -1.826555    0.830904
     60          1           0       -5.856133   -0.780481    2.192620
     61          1           0       -6.118018   -0.216760    0.542204
     62          6           0       -3.170050   -0.995276    2.194093
     63          1           0       -3.585149   -0.899953    3.206367
     64          1           0       -3.170826   -2.065810    1.944848
     65          1           0       -2.129216   -0.643170    2.226691
 ---------------------------------------------------------------------
 Rotational constants (GHZ):      0.1736569      0.1169706      0.0871743
 General basis read from cards:  (5D, 7F)
 ======================================================================================================
                                       Pseudopotential Parameters
 ======================================================================================================
  Center     Atomic      Valence      Angular      Power
  Number     Number     Electrons     Momentum     of R      Exponent        Coefficient   SO-Coeffient
 ======================================================================================================
    1          6
                                   No pseudopotential on this center.
    2          6
                                   No pseudopotential on this center.
    3          6
                                   No pseudopotential on this center.
    4          6
                                   No pseudopotential on this center.
    5          1
                                   No pseudopotential on this center.
    6          6
                                   No pseudopotential on this center.
    7          7
                                   No pseudopotential on this center.
    8          1
                                   No pseudopotential on this center.
    9          1
                                   No pseudopotential on this center.
   10         17
                                   No pseudopotential on this center.
   11          6
                                   No pseudopotential on this center.
   12          8
                                   No pseudopotential on this center.
   13          7
                                   No pseudopotential on this center.
   14          6
                                   No pseudopotential on this center.
   15          1
                                   No pseudopotential on this center.
   16          1
                                   No pseudopotential on this center.
   17          6
                                   No pseudopotential on this center.
   18          6
                                   No pseudopotential on this center.
   19          1
                                   No pseudopotential on this center.
   20         46           18
                                      F and up 
                                                     0      598.3336444       -0.05631770    0.00000000
                                                     1      162.4298290      -20.12880360    0.00000000
                                                     2       51.5714771     -105.81979230    0.00000000
                                                     2       16.4888260      -42.57333450    0.00000000
                                                     2        5.8287656       -3.61650860    0.00000000
                                      S - F
                                                     0       73.3806304        3.00036510    0.00000000
                                                     1       14.7550438       32.43500930    0.00000000
                                                     2       17.8350204      459.08303830    0.00000000
                                                     2       12.7111477     -868.06290290    0.00000000
                                                     2        9.3292063      514.47260980    0.00000000
                                      P - F
                                                     0       55.6689877        4.95930990    0.00000000
                                                     1       64.2337771       21.17110290    0.00000000
                                                     2       17.6254952      605.05600920    0.00000000
                                                     2       11.9058155     -726.96418460    0.00000000
                                                     2        8.5100832      396.32748830    0.00000000
                                      D - F
                                                     0       49.9994728        3.05087450    0.00000000
                                                     1       39.7477547       22.25065800    0.00000000
                                                     2       11.4321366      674.83576980    0.00000000
                                                     2        9.1790080    -1040.85540480    0.00000000
                                                     2        7.5624429      505.93751470    0.00000000
   21          6
                                   No pseudopotential on this center.
   22          6
                                   No pseudopotential on this center.
   23          6
                                   No pseudopotential on this center.
   24          6
                                   No pseudopotential on this center.
   25          6
                                   No pseudopotential on this center.
   26          1
                                   No pseudopotential on this center.
   27          1
                                   No pseudopotential on this center.
   28          6
                                   No pseudopotential on this center.
   29          1
                                   No pseudopotential on this center.
   30          1
                                   No pseudopotential on this center.
   31          6
                                   No pseudopotential on this center.
   32          6
                                   No pseudopotential on this center.
   33          6
                                   No pseudopotential on this center.
   34          1
                                   No pseudopotential on this center.
   35          1
                                   No pseudopotential on this center.
   36          1
                                   No pseudopotential on this center.
   37          6
                                   No pseudopotential on this center.
   38          8
                                   No pseudopotential on this center.
   39          1
                                   No pseudopotential on this center.
   40          1
                                   No pseudopotential on this center.
   41          1
                                   No pseudopotential on this center.
   42          6
                                   No pseudopotential on this center.
   43          1
                                   No pseudopotential on this center.
   44          1
                                   No pseudopotential on this center.
   45          1
                                   No pseudopotential on this center.
   46          8
                                   No pseudopotential on this center.
   47          1
                                   No pseudopotential on this center.
   48          1
                                   No pseudopotential on this center.
   49          6
                                   No pseudopotential on this center.
   50          1
                                   No pseudopotential on this center.
   51          1
                                   No pseudopotential on this center.
   52          1
                                   No pseudopotential on this center.
   53          1
                                   No pseudopotential on this center.
   54          6
                                   No pseudopotential on this center.
   55          1
                                   No pseudopotential on this center.
   56          1
                                   No pseudopotential on this center.
   57          1
                                   No pseudopotential on this center.
   58          6
                                   No pseudopotential on this center.
   59          1
                                   No pseudopotential on this center.
   60          1
                                   No pseudopotential on this center.
   61          1
                                   No pseudopotential on this center.
   62          6
                                   No pseudopotential on this center.
   63          1
                                   No pseudopotential on this center.
   64          1
                                   No pseudopotential on this center.
   65          1
                                   No pseudopotential on this center.
 ======================================================================================================
 There are   666 symmetry adapted cartesian basis functions of A   symmetry.
 There are   634 symmetry adapted basis functions of A   symmetry.
   634 basis functions,  1169 primitive gaussians,   666 cartesian basis functions
   125 alpha electrons      125 beta electrons
       nuclear repulsion energy      3968.0344120075 Hartrees.
 NAtoms=   65 NActive=   65 NUniq=   65 SFac= 1.00D+00 NAtFMM=   60 NAOKFM=T Big=T
 Integral buffers will be    131072 words long.
 Raffenetti 2 integral format.
 Two-electron integral symmetry is turned on.
 Standard density basis: Auto (5D, 7F)
  2775 Density fitting functions
 There are  2775 symmetry adapted density basis functions of A   symmetry.
 One-electron integrals computed using PRISM.
   1 Symmetry operations used in ECPInt.
 ECPInt:  NShTT=   25878 NPrTT=  135610 LenC2=   22953 LenP2D=   71440.
 LDataN:  DoStor=T MaxTD1= 5 Len=  102
 NBasis=   634 RedAO= T EigKep=  1.04D-06  NBF=   634
 NBsUse=   633 1.00D-06 EigRej=  3.83D-07 NBFU=   633
 Defaulting to unpruned grid for atomic number  46.
 ExpMin= 2.62D-02 ExpMax= 2.52D+04 ExpMxC= 3.78D+03 IAcc=3 IRadAn=         5 AccDes= 0.00D+00
 Harris functional with IExCor= 1009 and IRadAn=       5 diagonalized for initial guess.
 HarFok:  IExCor= 1009 AccDes= 0.00D+00 IRadAn=         5 IDoV= 1 UseB2=F ITyADJ=14
 ICtDFT=  3500011 ScaDFX=  1.000000  1.000000  1.000000  1.000000
 Defaulting to unpruned grid for atomic number  46.
 Defaulting to unpruned grid for atomic number  46.
 Defaulting to unpruned grid for atomic number  46.
 Defaulting to unpruned grid for atomic number  46.
 Defaulting to unpruned grid for atomic number  46.
 Defaulting to unpruned grid for atomic number  46.
 Defaulting to unpruned grid for atomic number  46.
 Defaulting to unpruned grid for atomic number  46.
 Defaulting to unpruned grid for atomic number  46.
 Defaulting to unpruned grid for atomic number  46.
 Defaulting to unpruned grid for atomic number  46.
 Defaulting to unpruned grid for atomic number  46.
 Defaulting to unpruned grid for atomic number  46.
 Defaulting to unpruned grid for atomic number  46.
 Defaulting to unpruned grid for atomic number  46.
 Defaulting to unpruned grid for atomic number  46.
 Defaulting to unpruned grid for atomic number  46.
 Defaulting to unpruned grid for atomic number  46.
 Defaulting to unpruned grid for atomic number  46.
 Defaulting to unpruned grid for atomic number  46.
 Defaulting to unpruned grid for atomic number  46.
 Defaulting to unpruned grid for atomic number  46.
 Defaulting to unpruned grid for atomic number  46.
 Defaulting to unpruned grid for atomic number  46.
 Defaulting to unpruned grid for atomic number  46.
 Defaulting to unpruned grid for atomic number  46.
 Defaulting to unpruned grid for atomic number  46.
 Defaulting to unpruned grid for atomic number  46.
 FoFCou: FMM=F IPFlag=           0 FMFlag=      100000 FMFlg1=        2001
         NFxFlg=           0 DoJE=T BraDBF=F KetDBF=T FulRan=T
         wScrn=  0.000000 ICntrl=     500 IOpCl=  0 I1Cent=   200000004 NGrid=           0
         NMat0=    1 NMatS0=      1 NMatT0=    0 NMatD0=    1 NMtDS0=    0 NMtDT0=    0
 Petite list used in FoFCou.
 Requested convergence on RMS density matrix=1.00D-08 within 128 cycles.
 Requested convergence on MAX density matrix=1.00D-06.
 Requested convergence on             energy=1.00D-06.
 No special actions if energy rises.
 Defaulting to unpruned grid for atomic number  46.
 Defaulting to unpruned grid for atomic number  46.
 Defaulting to unpruned grid for atomic number  46.
 Defaulting to unpruned grid for atomic number  46.
 Defaulting to unpruned grid for atomic number  46.
 Defaulting to unpruned grid for atomic number  46.
 Defaulting to unpruned grid for atomic number  46.
 Defaulting to unpruned grid for atomic number  46.
 Defaulting to unpruned grid for atomic number  46.
 Defaulting to unpruned grid for atomic number  46.
 Defaulting to unpruned grid for atomic number  46.
 Defaulting to unpruned grid for atomic number  46.
 Defaulting to unpruned grid for atomic number  46.
 Defaulting to unpruned grid for atomic number  46.
 Defaulting to unpruned grid for atomic number  46.
 Defaulting to unpruned grid for atomic number  46.
 Defaulting to unpruned grid for atomic number  46.
 Defaulting to unpruned grid for atomic number  46.
 Defaulting to unpruned grid for atomic number  46.
 Defaulting to unpruned grid for atomic number  46.
 Defaulting to unpruned grid for atomic number  46.
 Defaulting to unpruned grid for atomic number  46.
 Defaulting to unpruned grid for atomic number  46.
 Defaulting to unpruned grid for atomic number  46.
 Defaulting to unpruned grid for atomic number  46.
 Defaulting to unpruned grid for atomic number  46.
 Defaulting to unpruned grid for atomic number  46.
 Defaulting to unpruned grid for atomic number  46.
 EnCoef did   100 forward-backward iterations
 EnCoef did   100 forward-backward iterations
 EnCoef did   100 forward-backward iterations
 Restarting incremental Fock formation.
 SCF Done:  E(RM06) =  -1856.01865834     A.U. after   27 cycles
            NFock= 27  Conv=0.95D-09     -V/T= 2.0508
 DoSCS=F DFT=T ScalE2(SS,OS)=  1.000000  1.000000
 Range of M.O.s used for correlation:     1   633
 NBasis=   634 NAE=   125 NBE=   125 NFC=     0 NFV=     0
 NROrb=    633 NOA=   125 NOB=   125 NVA=   508 NVB=   508

 **** Warning!!: The largest alpha MO coefficient is  0.15260545D+03

   1 Symmetry operations used in ECPInt.
 ECPInt:  NShTT=   25878 NPrTT=  135610 LenC2=   22953 LenP2D=   71440.
 LDataN:  DoStor=T MaxTD1= 6 Len=  172
 Number of processors reduced to   9 by ecpmxn.
 Symmetrizing basis deriv contribution to polar:
 IMax=3 JMax=2 DiffMx= 0.00D+00
 G2DrvN: will do    66 centers at a time, making    1 passes.
 Calling FoFCou, ICntrl=  3107 FMM=T I1Cent=   0 AccDes= 0.00D+00.
 Defaulting to unpruned grid for atomic number  46.
 Defaulting to unpruned grid for atomic number  46.
 Defaulting to unpruned grid for atomic number  46.
 Defaulting to unpruned grid for atomic number  46.
 Defaulting to unpruned grid for atomic number  46.
 Defaulting to unpruned grid for atomic number  46.
 Defaulting to unpruned grid for atomic number  46.
 Defaulting to unpruned grid for atomic number  46.
 Defaulting to unpruned grid for atomic number  46.
 Defaulting to unpruned grid for atomic number  46.
 Defaulting to unpruned grid for atomic number  46.
 Defaulting to unpruned grid for atomic number  46.
 Defaulting to unpruned grid for atomic number  46.
 Defaulting to unpruned grid for atomic number  46.
 Defaulting to unpruned grid for atomic number  46.
 Defaulting to unpruned grid for atomic number  46.
 Defaulting to unpruned grid for atomic number  46.
 Defaulting to unpruned grid for atomic number  46.
 Defaulting to unpruned grid for atomic number  46.
 Defaulting to unpruned grid for atomic number  46.
 Defaulting to unpruned grid for atomic number  46.
 Defaulting to unpruned grid for atomic number  46.
 Defaulting to unpruned grid for atomic number  46.
 Defaulting to unpruned grid for atomic number  46.
 Defaulting to unpruned grid for atomic number  46.
 Defaulting to unpruned grid for atomic number  46.
 Defaulting to unpruned grid for atomic number  46.
 Defaulting to unpruned grid for atomic number  46.
 End of G2Drv F.D. properties file   721 does not exist.
 End of G2Drv F.D. properties file   722 does not exist.
 End of G2Drv F.D. properties file   788 does not exist.
          IDoAtm=11111111111111111111111111111111111111111111111111
          IDoAtm=111111111111111
          Differentiating once with respect to electric field.
                with respect to dipole field.
          Differentiating once with respect to nuclear coordinates.
 Defaulting to unpruned grid for atomic number  46.
 CalDSu exits because no D1Ps are significant.
 Defaulting to unpruned grid for atomic number  46.
 Defaulting to unpruned grid for atomic number  46.
 Defaulting to unpruned grid for atomic number  46.
 Defaulting to unpruned grid for atomic number  46.
 Defaulting to unpruned grid for atomic number  46.
 Defaulting to unpruned grid for atomic number  46.
 Defaulting to unpruned grid for atomic number  46.
 Defaulting to unpruned grid for atomic number  46.
 Defaulting to unpruned grid for atomic number  46.
 Defaulting to unpruned grid for atomic number  46.
 Defaulting to unpruned grid for atomic number  46.
 Defaulting to unpruned grid for atomic number  46.
 Defaulting to unpruned grid for atomic number  46.
 Defaulting to unpruned grid for atomic number  46.
 Defaulting to unpruned grid for atomic number  46.
 Defaulting to unpruned grid for atomic number  46.
 Defaulting to unpruned grid for atomic number  46.
 Defaulting to unpruned grid for atomic number  46.
 Defaulting to unpruned grid for atomic number  46.
 Defaulting to unpruned grid for atomic number  46.
 Defaulting to unpruned grid for atomic number  46.
 Defaulting to unpruned grid for atomic number  46.
 Defaulting to unpruned grid for atomic number  46.
 Defaulting to unpruned grid for atomic number  46.
 Defaulting to unpruned grid for atomic number  46.
 Defaulting to unpruned grid for atomic number  46.
 Defaulting to unpruned grid for atomic number  46.
 Defaulting to unpruned grid for atomic number  46.
          There are   198 degrees of freedom in the 1st order CPHF.  IDoFFX=6 NUNeed=     3.
    198 vectors produced by pass  0 Test12= 6.35D-14 1.00D-09 XBig12= 4.05D+02 7.78D+00.
 AX will form    84 AO Fock derivatives at one time.
    198 vectors produced by pass  1 Test12= 6.35D-14 1.00D-09 XBig12= 1.15D+02 1.18D+00.
    195 vectors produced by pass  2 Test12= 6.35D-14 1.00D-09 XBig12= 2.91D+00 1.79D-01.
    195 vectors produced by pass  3 Test12= 6.35D-14 1.00D-09 XBig12= 1.77D-02 1.05D-02.
    195 vectors produced by pass  4 Test12= 6.35D-14 1.00D-09 XBig12= 7.56D-05 6.19D-04.
    195 vectors produced by pass  5 Test12= 6.35D-14 1.00D-09 XBig12= 2.06D-07 2.30D-05.
    195 vectors produced by pass  6 Test12= 6.35D-14 1.00D-09 XBig12= 4.96D-10 1.30D-06.
    195 vectors produced by pass  7 Test12= 6.35D-14 1.00D-09 XBig12= 3.31D-12 1.10D-07.
    195 vectors produced by pass  8 Test12= 6.35D-14 1.00D-09 XBig12= 2.75D-13 2.28D-08.
    195 vectors produced by pass  9 Test12= 6.35D-14 1.00D-09 XBig12= 9.33D-14 1.16D-08.
    183 vectors produced by pass 10 Test12= 6.35D-14 1.00D-09 XBig12= 8.98D-14 1.30D-08.
    146 vectors produced by pass 11 Test12= 6.35D-14 1.00D-09 XBig12= 1.33D-13 1.44D-08.
    109 vectors produced by pass 12 Test12= 6.35D-14 1.00D-09 XBig12= 5.58D-14 8.03D-09.
     47 vectors produced by pass 13 Test12= 6.35D-14 1.00D-09 XBig12= 6.16D-14 9.92D-09.
     18 vectors produced by pass 14 Test12= 6.35D-14 1.00D-09 XBig12= 9.37D-15 3.35D-09.
     18 vectors produced by pass 15 Test12= 6.35D-14 1.00D-09 XBig12= 2.33D-14 6.05D-09.
     18 vectors produced by pass 16 Test12= 6.35D-14 1.00D-09 XBig12= 2.48D-14 5.35D-09.
     18 vectors produced by pass 17 Test12= 6.35D-14 1.00D-09 XBig12= 4.05D-14 8.35D-09.
     18 vectors produced by pass 18 Test12= 6.35D-14 1.00D-09 XBig12= 3.22D-14 6.11D-09.
     18 vectors produced by pass 19 Test12= 6.35D-14 1.00D-09 XBig12= 2.12D-14 4.55D-09.
     18 vectors produced by pass 20 Test12= 6.35D-14 1.00D-09 XBig12= 3.01D-14 6.76D-09.
     18 vectors produced by pass 21 Test12= 6.35D-14 1.00D-09 XBig12= 1.41D-14 4.49D-09.
     18 vectors produced by pass 22 Test12= 6.35D-14 1.00D-09 XBig12= 2.17D-14 5.30D-09.
     18 vectors produced by pass 23 Test12= 6.35D-14 1.00D-09 XBig12= 3.19D-14 5.73D-09.
     18 vectors produced by pass 24 Test12= 6.35D-14 1.00D-09 XBig12= 2.11D-14 4.78D-09.
     18 vectors produced by pass 25 Test12= 6.35D-14 1.00D-09 XBig12= 3.91D-14 6.81D-09.
     18 vectors produced by pass 26 Test12= 6.35D-14 1.00D-09 XBig12= 2.21D-14 5.02D-09.
     18 vectors produced by pass 27 Test12= 6.35D-14 1.00D-09 XBig12= 1.79D-14 4.57D-09.
     18 vectors produced by pass 28 Test12= 6.35D-14 1.00D-09 XBig12= 1.78D-14 4.11D-09.
     18 vectors produced by pass 29 Test12= 6.35D-14 1.00D-09 XBig12= 8.78D-15 3.22D-09.
     18 vectors produced by pass 30 Test12= 6.35D-14 1.00D-09 XBig12= 5.34D-15 2.33D-09.
     18 vectors produced by pass 31 Test12= 6.35D-14 1.00D-09 XBig12= 1.85D-14 4.39D-09.
     17 vectors produced by pass 32 Test12= 6.35D-14 1.00D-09 XBig12= 3.27D-15 1.96D-09.
     17 vectors produced by pass 33 Test12= 6.35D-14 1.00D-09 XBig12= 1.04D-14 3.48D-09.
     17 vectors produced by pass 34 Test12= 6.35D-14 1.00D-09 XBig12= 1.65D-14 4.03D-09.
     17 vectors produced by pass 35 Test12= 6.35D-14 1.00D-09 XBig12= 4.84D-15 3.13D-09.
     17 vectors produced by pass 36 Test12= 6.35D-14 1.00D-09 XBig12= 4.35D-15 2.84D-09.
     17 vectors produced by pass 37 Test12= 6.35D-14 1.00D-09 XBig12= 6.20D-15 2.73D-09.
     17 vectors produced by pass 38 Test12= 6.35D-14 1.00D-09 XBig12= 1.17D-14 3.79D-09.
     17 vectors produced by pass 39 Test12= 6.35D-14 1.00D-09 XBig12= 6.81D-15 2.89D-09.
     17 vectors produced by pass 40 Test12= 6.35D-14 1.00D-09 XBig12= 7.71D-15 3.35D-09.
     17 vectors produced by pass 41 Test12= 6.35D-14 1.00D-09 XBig12= 9.99D-15 3.13D-09.
     17 vectors produced by pass 42 Test12= 6.35D-14 1.00D-09 XBig12= 8.00D-15 2.98D-09.
     17 vectors produced by pass 43 Test12= 6.35D-14 1.00D-09 XBig12= 6.32D-15 3.16D-09.
     17 vectors produced by pass 44 Test12= 6.35D-14 1.00D-09 XBig12= 5.89D-15 2.68D-09.
     17 vectors produced by pass 45 Test12= 6.35D-14 1.00D-09 XBig12= 6.10D-15 2.87D-09.
     17 vectors produced by pass 46 Test12= 6.35D-14 1.00D-09 XBig12= 3.63D-15 1.85D-09.
     17 vectors produced by pass 47 Test12= 6.35D-14 1.00D-09 XBig12= 7.37D-15 2.63D-09.
     17 vectors produced by pass 48 Test12= 6.35D-14 1.00D-09 XBig12= 3.87D-15 2.30D-09.
     17 vectors produced by pass 49 Test12= 6.35D-14 1.00D-09 XBig12= 1.27D-14 3.86D-09.
     15 vectors produced by pass 50 Test12= 6.35D-14 1.00D-09 XBig12= 2.76D-15 2.03D-09.
     15 vectors produced by pass 51 Test12= 6.35D-14 1.00D-09 XBig12= 1.50D-14 4.25D-09.
     15 vectors produced by pass 52 Test12= 6.35D-14 1.00D-09 XBig12= 4.70D-15 2.25D-09.
     15 vectors produced by pass 53 Test12= 6.35D-14 1.00D-09 XBig12= 4.10D-15 2.10D-09.
     15 vectors produced by pass 54 Test12= 6.35D-14 1.00D-09 XBig12= 5.46D-15 2.54D-09.
      8 vectors produced by pass 55 Test12= 6.35D-14 1.00D-09 XBig12= 1.57D-15 1.27D-09.
      8 vectors produced by pass 56 Test12= 6.35D-14 1.00D-09 XBig12= 4.62D-15 2.26D-09.
      8 vectors produced by pass 57 Test12= 6.35D-14 1.00D-09 XBig12= 4.08D-15 2.28D-09.
      8 vectors produced by pass 58 Test12= 6.35D-14 1.00D-09 XBig12= 6.24D-15 2.63D-09.
      8 vectors produced by pass 59 Test12= 6.35D-14 1.00D-09 XBig12= 3.40D-15 1.99D-09.
      8 vectors produced by pass 60 Test12= 6.35D-14 1.00D-09 XBig12= 2.77D-15 1.82D-09.
      8 vectors produced by pass 61 Test12= 6.35D-14 1.00D-09 XBig12= 1.27D-14 3.40D-09.
      8 vectors produced by pass 62 Test12= 6.35D-14 1.00D-09 XBig12= 7.45D-15 2.70D-09.
      8 vectors produced by pass 63 Test12= 6.35D-14 1.00D-09 XBig12= 5.40D-15 2.25D-09.
      8 vectors produced by pass 64 Test12= 6.35D-14 1.00D-09 XBig12= 4.54D-15 2.23D-09.
      8 vectors produced by pass 65 Test12= 6.35D-14 1.00D-09 XBig12= 3.56D-15 2.15D-09.
      8 vectors produced by pass 66 Test12= 6.35D-14 1.00D-09 XBig12= 3.07D-15 1.86D-09.
      8 vectors produced by pass 67 Test12= 6.35D-14 1.00D-09 XBig12= 5.20D-15 2.27D-09.
      8 vectors produced by pass 68 Test12= 6.35D-14 1.00D-09 XBig12= 6.92D-15 2.48D-09.
      8 vectors produced by pass 69 Test12= 6.35D-14 1.00D-09 XBig12= 5.99D-15 2.62D-09.
      7 vectors produced by pass 70 Test12= 6.35D-14 1.00D-09 XBig12= 1.98D-15 1.45D-09.
      7 vectors produced by pass 71 Test12= 6.35D-14 1.00D-09 XBig12= 2.86D-15 1.71D-09.
      7 vectors produced by pass 72 Test12= 6.35D-14 1.00D-09 XBig12= 6.98D-15 2.82D-09.
      7 vectors produced by pass 73 Test12= 6.35D-14 1.00D-09 XBig12= 1.84D-15 1.39D-09.
      7 vectors produced by pass 74 Test12= 6.35D-14 1.00D-09 XBig12= 4.90D-15 2.76D-09.
      7 vectors produced by pass 75 Test12= 6.35D-14 1.00D-09 XBig12= 4.24D-15 2.10D-09.
      7 vectors produced by pass 76 Test12= 6.35D-14 1.00D-09 XBig12= 2.58D-15 2.04D-09.
      7 vectors produced by pass 77 Test12= 6.35D-14 1.00D-09 XBig12= 2.44D-15 1.57D-09.
      7 vectors produced by pass 78 Test12= 6.35D-14 1.00D-09 XBig12= 2.82D-15 1.69D-09.
      7 vectors produced by pass 79 Test12= 6.35D-14 1.00D-09 XBig12= 7.55D-15 2.65D-09.
      7 vectors produced by pass 80 Test12= 6.35D-14 1.00D-09 XBig12= 5.39D-15 2.28D-09.
      7 vectors produced by pass 81 Test12= 6.35D-14 1.00D-09 XBig12= 2.05D-15 1.53D-09.
      7 vectors produced by pass 82 Test12= 6.35D-14 1.00D-09 XBig12= 2.58D-15 1.57D-09.
      7 vectors produced by pass 83 Test12= 6.35D-14 1.00D-09 XBig12= 6.17D-15 2.43D-09.
      7 vectors produced by pass 84 Test12= 6.35D-14 1.00D-09 XBig12= 6.45D-15 2.58D-09.
      7 vectors produced by pass 85 Test12= 6.35D-14 1.00D-09 XBig12= 2.79D-15 1.66D-09.
      7 vectors produced by pass 86 Test12= 6.35D-14 1.00D-09 XBig12= 9.91D-15 3.29D-09.
      7 vectors produced by pass 87 Test12= 6.35D-14 1.00D-09 XBig12= 8.21D-15 2.72D-09.
      7 vectors produced by pass 88 Test12= 6.35D-14 1.00D-09 XBig12= 4.14D-15 2.01D-09.
      7 vectors produced by pass 89 Test12= 6.35D-14 1.00D-09 XBig12= 3.29D-15 1.90D-09.
      7 vectors produced by pass 90 Test12= 6.35D-14 1.00D-09 XBig12= 8.24D-15 2.94D-09.
      7 vectors produced by pass 91 Test12= 6.35D-14 1.00D-09 XBig12= 5.25D-15 2.61D-09.
      7 vectors produced by pass 92 Test12= 6.35D-14 1.00D-09 XBig12= 5.02D-15 2.27D-09.
      6 vectors produced by pass 93 Test12= 6.35D-14 1.00D-09 XBig12= 1.82D-15 1.59D-09.
      6 vectors produced by pass 94 Test12= 6.35D-14 1.00D-09 XBig12= 3.67D-15 1.77D-09.
      6 vectors produced by pass 95 Test12= 6.35D-14 1.00D-09 XBig12= 3.74D-15 1.95D-09.
      6 vectors produced by pass 96 Test12= 6.35D-14 1.00D-09 XBig12= 3.31D-15 1.88D-09.
      6 vectors produced by pass 97 Test12= 6.35D-14 1.00D-09 XBig12= 6.30D-15 2.54D-09.
      6 vectors produced by pass 98 Test12= 6.35D-14 1.00D-09 XBig12= 2.76D-15 1.98D-09.
      6 vectors produced by pass 99 Test12= 6.35D-14 1.00D-09 XBig12= 3.21D-15 1.93D-09.
      6 vectors produced by pass100 Test12= 6.35D-14 1.00D-09 XBig12= 2.45D-15 1.61D-09.
      6 vectors produced by pass101 Test12= 6.35D-14 1.00D-09 XBig12= 2.11D-15 1.48D-09.
      5 vectors produced by pass102 Test12= 6.35D-14 1.00D-09 XBig12= 1.69D-15 1.41D-09.
      5 vectors produced by pass103 Test12= 6.35D-14 1.00D-09 XBig12= 6.68D-15 2.91D-09.
      5 vectors produced by pass104 Test12= 6.35D-14 1.00D-09 XBig12= 2.72D-15 1.71D-09.
      5 vectors produced by pass105 Test12= 6.35D-14 1.00D-09 XBig12= 2.83D-15 1.73D-09.
      5 vectors produced by pass106 Test12= 6.35D-14 1.00D-09 XBig12= 1.99D-15 1.44D-09.
      5 vectors produced by pass107 Test12= 6.35D-14 1.00D-09 XBig12= 4.41D-15 2.16D-09.
      5 vectors produced by pass108 Test12= 6.35D-14 1.00D-09 XBig12= 2.47D-15 1.46D-09.
      5 vectors produced by pass109 Test12= 6.35D-14 1.00D-09 XBig12= 6.28D-15 2.52D-09.
      5 vectors produced by pass110 Test12= 6.35D-14 1.00D-09 XBig12= 5.94D-15 2.16D-09.
      5 vectors produced by pass111 Test12= 6.35D-14 1.00D-09 XBig12= 2.73D-15 1.67D-09.
      5 vectors produced by pass112 Test12= 6.35D-14 1.00D-09 XBig12= 3.25D-15 1.98D-09.
      5 vectors produced by pass113 Test12= 6.35D-14 1.00D-09 XBig12= 1.42D-15 1.23D-09.
      5 vectors produced by pass114 Test12= 6.35D-14 1.00D-09 XBig12= 4.96D-15 2.35D-09.
      3 vectors produced by pass115 Test12= 6.35D-14 1.00D-09 XBig12= 1.43D-15 1.17D-09.
      3 vectors produced by pass116 Test12= 6.35D-14 1.00D-09 XBig12= 1.50D-15 1.45D-09.
      3 vectors produced by pass117 Test12= 6.35D-14 1.00D-09 XBig12= 3.38D-15 1.70D-09.
      3 vectors produced by pass118 Test12= 6.35D-14 1.00D-09 XBig12= 4.38D-15 2.14D-09.
      1 vectors produced by pass119 Test12= 6.35D-14 1.00D-09 XBig12= 1.12D-15 1.01D-09.
 InvSVY:  IOpt=1 It=  1 EMax= 1.78D-14
 Solved reduced A of dimension  3559 with   198 vectors.
 Isotropic polarizability for W=    0.000000      345.90 Bohr**3.
 End of Minotr F.D. properties file   721 does not exist.
 End of Minotr F.D. properties file   722 does not exist.
 End of Minotr F.D. properties file   788 does not exist.

 **********************************************************************

            Population analysis using the SCF density.

 **********************************************************************

 Orbital symmetries:
       Occupied  (A) (A) (A) (A) (A) (A) (A) (A) (A) (A) (A) (A)
                 (A) (A) (A) (A) (A) (A) (A) (A) (A) (A) (A) (A)
                 (A) (A) (A) (A) (A) (A) (A) (A) (A) (A) (A) (A)
                 (A) (A) (A) (A) (A) (A) (A) (A) (A) (A) (A) (A)
                 (A) (A) (A) (A) (A) (A) (A) (A) (A) (A) (A) (A)
                 (A) (A) (A) (A) (A) (A) (A) (A) (A) (A) (A) (A)
                 (A) (A) (A) (A) (A) (A) (A) (A) (A) (A) (A) (A)
                 (A) (A) (A) (A) (A) (A) (A) (A) (A) (A) (A) (A)
                 (A) (A) (A) (A) (A) (A) (A) (A) (A) (A) (A) (A)
                 (A) (A) (A) (A) (A) (A) (A) (A) (A) (A) (A) (A)
                 (A) (A) (A) (A) (A)
       Virtual   (A) (A) (A) (A) (A) (A) (A) (A) (A) (A) (A) (A)
                 (A) (A) (A) (A) (A) (A) (A) (A) (A) (A) (A) (A)
                 (A) (A) (A) (A) (A) (A) (A) (A) (A) (A) (A) (A)
                 (A) (A) (A) (A) (A) (A) (A) (A) (A) (A) (A) (A)
                 (A) (A) (A) (A) (A) (A) (A) (A) (A) (A) (A) (A)
                 (A) (A) (A) (A) (A) (A) (A) (A) (A) (A) (A) (A)
                 (A) (A) (A) (A) (A) (A) (A) (A) (A) (A) (A) (A)
                 (A) (A) (A) (A) (A) (A) (A) (A) (A) (A) (A) (A)
                 (A) (A) (A) (A) (A) (A) (A) (A) (A) (A) (A) (A)
                 (A) (A) (A) (A) (A) (A) (A) (A) (A) (A) (A) (A)
                 (A) (A) (A) (A) (A) (A) (A) (A) (A) (A) (A) (A)
                 (A) (A) (A) (A) (A) (A) (A) (A) (A) (A) (A) (A)
                 (A) (A) (A) (A) (A) (A) (A) (A) (A) (A) (A) (A)
                 (A) (A) (A) (A) (A) (A) (A) (A) (A) (A) (A) (A)
                 (A) (A) (A) (A) (A) (A) (A) (A) (A) (A) (A) (A)
                 (A) (A) (A) (A) (A) (A) (A) (A) (A) (A) (A) (A)
                 (A) (A) (A) (A) (A) (A) (A) (A) (A) (A) (A) (A)
                 (A) (A) (A) (A) (A) (A) (A) (A) (A) (A) (A) (A)
                 (A) (A) (A) (A) (A) (A) (A) (A) (A) (A) (A) (A)
                 (A) (A) (A) (A) (A) (A) (A) (A) (A) (A) (A) (A)
                 (A) (A) (A) (A) (A) (A) (A) (A) (A) (A) (A) (A)
                 (A) (A) (A) (A) (A) (A) (A) (A) (A) (A) (A) (A)
                 (A) (A) (A) (A) (A) (A) (A) (A) (A) (A) (A) (A)
                 (A) (A) (A) (A) (A) (A) (A) (A) (A) (A) (A) (A)
                 (A) (A) (A) (A) (A) (A) (A) (A) (A) (A) (A) (A)
                 (A) (A) (A) (A) (A) (A) (A) (A) (A) (A) (A) (A)
                 (A) (A) (A) (A) (A) (A) (A) (A) (A) (A) (A) (A)
                 (A) (A) (A) (A) (A) (A) (A) (A) (A) (A) (A) (A)
                 (A) (A) (A) (A) (A) (A) (A) (A) (A) (A) (A) (A)
                 (A) (A) (A) (A) (A) (A) (A) (A) (A) (A) (A) (A)
                 (A) (A) (A) (A) (A) (A) (A) (A) (A) (A) (A) (A)
                 (A) (A) (A) (A) (A) (A) (A) (A) (A) (A) (A) (A)
                 (A) (A) (A) (A) (A) (A) (A) (A) (A) (A) (A) (A)
                 (A) (A) (A) (A) (A) (A) (A) (A) (A) (A) (A) (A)
                 (A) (A) (A) (A) (A) (A) (A) (A) (A) (A) (A) (A)
                 (A) (A) (A) (A) (A) (A) (A) (A) (A) (A) (A) (A)
                 (A) (A) (A) (A) (A) (A) (A) (A) (A) (A) (A) (A)
                 (A) (A) (A) (A) (A) (A) (A) (A) (A) (A) (A) (A)
                 (A) (A) (A) (A) (A) (A) (A) (A) (A) (A) (A) (A)
                 (A) (A) (A) (A) (A) (A) (A) (A) (A) (A) (A) (A)
                 (A) (A) (A) (A) (A) (A) (A) (A) (A) (A) (A) (A)
                 (A) (A) (A) (A) (A) (A) (A) (A) (A) (A) (A) (A)
                 (A) (A) (A) (A)
 The electronic state is 1-A.
 Alpha  occ. eigenvalues -- -101.84597 -19.41855 -19.34805 -19.31484 -14.58179
 Alpha  occ. eigenvalues --  -14.55308 -10.50039 -10.49137 -10.45514 -10.43697
 Alpha  occ. eigenvalues --  -10.43522 -10.42400 -10.41930 -10.41819 -10.41651
 Alpha  occ. eigenvalues --  -10.41019 -10.40884 -10.40790 -10.40225 -10.37743
 Alpha  occ. eigenvalues --  -10.36985 -10.36858 -10.36361 -10.36154 -10.35395
 Alpha  occ. eigenvalues --  -10.34540 -10.34132 -10.34029 -10.33996 -10.33961
 Alpha  occ. eigenvalues --   -9.71770  -7.43037  -7.42021  -7.41938  -3.46442
 Alpha  occ. eigenvalues --   -2.20803  -2.20567  -2.17526  -1.27142  -1.16713
 Alpha  occ. eigenvalues --   -1.15372  -1.13504  -1.07380  -1.01487  -0.97349
 Alpha  occ. eigenvalues --   -0.96980  -0.96011  -0.95558  -0.92506  -0.89355
 Alpha  occ. eigenvalues --   -0.88191  -0.87530  -0.84405  -0.82302  -0.81522
 Alpha  occ. eigenvalues --   -0.80537  -0.79942  -0.79544  -0.79425  -0.77521
 Alpha  occ. eigenvalues --   -0.76791  -0.72678  -0.71819  -0.70468  -0.69025
 Alpha  occ. eigenvalues --   -0.67417  -0.66071  -0.65574  -0.65413  -0.64779
 Alpha  occ. eigenvalues --   -0.63800  -0.61319  -0.60941  -0.60667  -0.59880
 Alpha  occ. eigenvalues --   -0.59567  -0.59189  -0.58984  -0.57657  -0.57587
 Alpha  occ. eigenvalues --   -0.57042  -0.56811  -0.55896  -0.55862  -0.55441
 Alpha  occ. eigenvalues --   -0.54230  -0.53936  -0.53572  -0.53206  -0.52752
 Alpha  occ. eigenvalues --   -0.52695  -0.52154  -0.51818  -0.51462  -0.51144
 Alpha  occ. eigenvalues --   -0.51054  -0.50964  -0.49916  -0.49444  -0.49001
 Alpha  occ. eigenvalues --   -0.48912  -0.48593  -0.48085  -0.48051  -0.47874
 Alpha  occ. eigenvalues --   -0.47432  -0.46953  -0.46607  -0.46136  -0.45276
 Alpha  occ. eigenvalues --   -0.44982  -0.44748  -0.44464  -0.44305  -0.42996
 Alpha  occ. eigenvalues --   -0.42563  -0.41640  -0.41593  -0.40638  -0.40321
 Alpha  occ. eigenvalues --   -0.39581  -0.38351  -0.37263  -0.35359  -0.34920
 Alpha virt. eigenvalues --   -0.19918  -0.18139  -0.17025  -0.16177  -0.13117
 Alpha virt. eigenvalues --   -0.12286  -0.11729  -0.11351  -0.10472  -0.10238
 Alpha virt. eigenvalues --   -0.10104  -0.09910  -0.09562  -0.09372  -0.09158
 Alpha virt. eigenvalues --   -0.08892  -0.08402  -0.08217  -0.08036  -0.07818
 Alpha virt. eigenvalues --   -0.07384  -0.07086  -0.06617  -0.06375  -0.06203
 Alpha virt. eigenvalues --   -0.05922  -0.05511  -0.05324  -0.05095  -0.04999
 Alpha virt. eigenvalues --   -0.04727  -0.04356  -0.04040  -0.03715  -0.03548
 Alpha virt. eigenvalues --   -0.03323  -0.02970  -0.02874  -0.02390  -0.02169
 Alpha virt. eigenvalues --   -0.02073  -0.01941  -0.01559  -0.01377  -0.01221
 Alpha virt. eigenvalues --   -0.00946  -0.00729  -0.00656  -0.00205  -0.00002
 Alpha virt. eigenvalues --    0.00435   0.00685   0.01030   0.01288   0.01440
 Alpha virt. eigenvalues --    0.01552   0.01614   0.01843   0.02287   0.02441
 Alpha virt. eigenvalues --    0.02960   0.02969   0.03295   0.03676   0.03764
 Alpha virt. eigenvalues --    0.03859   0.04002   0.04177   0.04681   0.04778
 Alpha virt. eigenvalues --    0.05075   0.05384   0.05513   0.05580   0.05693
 Alpha virt. eigenvalues --    0.06072   0.06315   0.06388   0.06834   0.07157
 Alpha virt. eigenvalues --    0.07338   0.07493   0.07629   0.07854   0.07988
 Alpha virt. eigenvalues --    0.08322   0.08618   0.08733   0.09008   0.09187
 Alpha virt. eigenvalues --    0.09419   0.09549   0.09611   0.09893   0.10173
 Alpha virt. eigenvalues --    0.10288   0.10612   0.10688   0.10950   0.11179
 Alpha virt. eigenvalues --    0.11186   0.11516   0.11685   0.11927   0.12129
 Alpha virt. eigenvalues --    0.12237   0.12482   0.12508   0.12749   0.13019
 Alpha virt. eigenvalues --    0.13124   0.13443   0.13710   0.13971   0.14300
 Alpha virt. eigenvalues --    0.14325   0.14523   0.14833   0.14936   0.15110
 Alpha virt. eigenvalues --    0.15353   0.15689   0.15858   0.15931   0.16241
 Alpha virt. eigenvalues --    0.16439   0.16499   0.16673   0.16890   0.17076
 Alpha virt. eigenvalues --    0.17524   0.17864   0.18137   0.18421   0.18632
 Alpha virt. eigenvalues --    0.18886   0.18992   0.19083   0.19288   0.19812
 Alpha virt. eigenvalues --    0.20049   0.20304   0.20670   0.20904   0.21097
 Alpha virt. eigenvalues --    0.21430   0.21691   0.22073   0.22116   0.22472
 Alpha virt. eigenvalues --    0.22652   0.23132   0.23395   0.23612   0.23679
 Alpha virt. eigenvalues --    0.24427   0.24661   0.24965   0.25377   0.25705
 Alpha virt. eigenvalues --    0.25726   0.26103   0.26387   0.26588   0.27036
 Alpha virt. eigenvalues --    0.27268   0.27838   0.28118   0.28195   0.28945
 Alpha virt. eigenvalues --    0.29423   0.29638   0.29717   0.30614   0.30698
 Alpha virt. eigenvalues --    0.31526   0.31742   0.32175   0.32263   0.32752
 Alpha virt. eigenvalues --    0.33696   0.33979   0.34923   0.35370   0.36028
 Alpha virt. eigenvalues --    0.36781   0.37154   0.37380   0.38127   0.38873
 Alpha virt. eigenvalues --    0.39742   0.40393   0.41795   0.43409   0.43883
 Alpha virt. eigenvalues --    0.45806   0.46284   0.49288   0.49763   0.52270
 Alpha virt. eigenvalues --    0.53814   0.54765   0.55157   0.56348   0.56789
 Alpha virt. eigenvalues --    0.57224   0.57522   0.58423   0.58980   0.59315
 Alpha virt. eigenvalues --    0.59893   0.60608   0.60687   0.61308   0.62082
 Alpha virt. eigenvalues --    0.62148   0.62735   0.63071   0.63357   0.63631
 Alpha virt. eigenvalues --    0.64098   0.64299   0.64836   0.65055   0.65649
 Alpha virt. eigenvalues --    0.65931   0.66253   0.66457   0.67093   0.67267
 Alpha virt. eigenvalues --    0.67785   0.68547   0.68613   0.69431   0.69808
 Alpha virt. eigenvalues --    0.70358   0.70581   0.71818   0.72121   0.72654
 Alpha virt. eigenvalues --    0.72963   0.73406   0.73623   0.74601   0.75021
 Alpha virt. eigenvalues --    0.75511   0.76054   0.76450   0.77334   0.78168
 Alpha virt. eigenvalues --    0.78229   0.78550   0.78927   0.79357   0.79648
 Alpha virt. eigenvalues --    0.80018   0.80713   0.81073   0.81461   0.82003
 Alpha virt. eigenvalues --    0.82746   0.83108   0.83480   0.84281   0.84758
 Alpha virt. eigenvalues --    0.85596   0.86194   0.86354   0.86895   0.87516
 Alpha virt. eigenvalues --    0.87926   0.88260   0.89150   0.89936   0.90115
 Alpha virt. eigenvalues --    0.90510   0.90911   0.91477   0.91607   0.92381
 Alpha virt. eigenvalues --    0.92629   0.93524   0.93874   0.94702   0.95024
 Alpha virt. eigenvalues --    0.95117   0.95425   0.96519   0.96881   0.97124
 Alpha virt. eigenvalues --    0.97791   0.98568   0.98956   0.99392   0.99533
 Alpha virt. eigenvalues --    1.00144   1.01110   1.01273   1.02194   1.02776
 Alpha virt. eigenvalues --    1.03292   1.03498   1.04136   1.04983   1.05247
 Alpha virt. eigenvalues --    1.05739   1.06301   1.06994   1.07587   1.07966
 Alpha virt. eigenvalues --    1.08460   1.08544   1.09601   1.10055   1.11505
 Alpha virt. eigenvalues --    1.11951   1.12393   1.12987   1.14081   1.15156
 Alpha virt. eigenvalues --    1.15623   1.16218   1.17170   1.18190   1.18755
 Alpha virt. eigenvalues --    1.19470   1.19825   1.21894   1.22947   1.22998
 Alpha virt. eigenvalues --    1.23876   1.24115   1.25088   1.26161   1.26683
 Alpha virt. eigenvalues --    1.26922   1.28262   1.28809   1.29975   1.30809
 Alpha virt. eigenvalues --    1.30999   1.31683   1.32863   1.33186   1.34579
 Alpha virt. eigenvalues --    1.35428   1.35963   1.36484   1.37301   1.38626
 Alpha virt. eigenvalues --    1.39049   1.39578   1.41588   1.42296   1.42928
 Alpha virt. eigenvalues --    1.44035   1.44942   1.45063   1.45656   1.48041
 Alpha virt. eigenvalues --    1.48574   1.50890   1.51293   1.51863   1.52363
 Alpha virt. eigenvalues --    1.54249   1.55669   1.57293   1.58015   1.58901
 Alpha virt. eigenvalues --    1.60737   1.61102   1.61453   1.62661   1.63904
 Alpha virt. eigenvalues --    1.65669   1.66120   1.66347   1.66977   1.67764
 Alpha virt. eigenvalues --    1.68979   1.70220   1.70968   1.71782   1.72182
 Alpha virt. eigenvalues --    1.72602   1.73193   1.74172   1.74734   1.75639
 Alpha virt. eigenvalues --    1.76425   1.76842   1.77960   1.78436   1.79098
 Alpha virt. eigenvalues --    1.80045   1.81181   1.81347   1.82112   1.82684
 Alpha virt. eigenvalues --    1.83292   1.84115   1.84718   1.85801   1.85895
 Alpha virt. eigenvalues --    1.86718   1.87124   1.88361   1.90891   1.91271
 Alpha virt. eigenvalues --    1.91767   1.92019   1.92580   1.93660   1.94609
 Alpha virt. eigenvalues --    1.95302   1.96124   1.96954   1.97625   1.98761
 Alpha virt. eigenvalues --    1.99365   2.00159   2.00485   2.01246   2.01356
 Alpha virt. eigenvalues --    2.02015   2.03581   2.03754   2.04304   2.05756
 Alpha virt. eigenvalues --    2.07037   2.07590   2.07687   2.09534   2.09747
 Alpha virt. eigenvalues --    2.10306   2.11098   2.11612   2.11774   2.12169
 Alpha virt. eigenvalues --    2.12956   2.13596   2.13977   2.14628   2.14721
 Alpha virt. eigenvalues --    2.15479   2.16826   2.17970   2.18477   2.18865
 Alpha virt. eigenvalues --    2.19111   2.20095   2.20295   2.23175   2.24791
 Alpha virt. eigenvalues --    2.26351   2.27227   2.27596   2.27901   2.30091
 Alpha virt. eigenvalues --    2.32018   2.33688   2.35748   2.36359   2.37950
 Alpha virt. eigenvalues --    2.38118   2.38687   2.39871   2.41139   2.42381
 Alpha virt. eigenvalues --    2.43972   2.44705   2.46070   2.47157   2.48461
 Alpha virt. eigenvalues --    2.49235   2.50749   2.52229   2.54300   2.54736
 Alpha virt. eigenvalues --    2.57019   2.57699   2.59085   2.61517   2.63121
 Alpha virt. eigenvalues --    2.64842   2.66608   2.68849   2.69984   2.70026
 Alpha virt. eigenvalues --    2.70560   2.72523   2.74095   2.74881   2.77483
 Alpha virt. eigenvalues --    2.79239   2.80657   2.82000   2.86234   2.91509
 Alpha virt. eigenvalues --    2.92741   2.97936   2.99813   3.05441   3.13619
 Alpha virt. eigenvalues --    3.15656   3.26825  21.23117
          Condensed to atoms (all electrons):
 Mulliken charges:
               1
     1  C   -0.027134
     2  C   -0.522427
     3  C   -0.190533
     4  C   -0.176641
     5  H    0.254996
     6  C   -0.242167
     7  N    0.200224
     8  H    0.249559
     9  H    0.260983
    10  Cl   0.448875
    11  C   -0.138754
    12  O   -0.238898
    13  N    0.019008
    14  C   -0.240590
    15  H    0.235724
    16  H    0.238174
    17  C    0.204703
    18  C   -0.950290
    19  H    0.196150
    20  Pd  -0.478999
    21  C   -0.200928
    22  C   -0.439498
    23  C    0.540450
    24  C   -1.639699
    25  C    0.784826
    26  H    0.224944
    27  H    0.237183
    28  C   -0.263214
    29  H    0.237629
    30  H    0.219531
    31  C   -0.428397
    32  C   -0.399026
    33  C    0.210873
    34  H    0.165859
    35  H    0.215006
    36  H    0.246374
    37  C   -0.383852
    38  O   -0.310333
    39  H    0.256580
    40  H    0.215632
    41  H    0.218448
    42  C   -0.264033
    43  H    0.257010
    44  H    0.269415
    45  H    0.213599
    46  O   -0.618324
    47  H    0.528480
    48  H    0.278532
    49  C   -0.624087
    50  H    0.247850
    51  H    0.272423
    52  H    0.232792
    53  H    0.261877
    54  C   -0.219438
    55  H    0.239905
    56  H    0.230479
    57  H    0.226871
    58  C   -0.301277
    59  H    0.226395
    60  H    0.242427
    61  H    0.217655
    62  C   -0.394390
    63  H    0.235903
    64  H    0.197858
    65  H    0.231728
 Sum of Mulliken charges =   1.00000
 Mulliken charges with hydrogens summed into heavy atoms:
               1
     1  C   -0.027134
     2  C   -0.261444
     3  C    0.059026
     4  C    0.078354
     6  C   -0.242167
     7  N    0.200224
    10  Cl   0.448875
    11  C   -0.138754
    12  O   -0.238898
    13  N    0.019008
    14  C    0.233307
    17  C    0.400853
    18  C   -0.950290
    20  Pd  -0.478999
    21  C    0.302026
    22  C    0.001079
    23  C    0.996081
    24  C   -1.639699
    25  C    0.784826
    28  C    0.472479
    31  C   -0.428397
    32  C   -0.137148
    33  C    0.591739
    37  C   -0.383852
    38  O   -0.310333
    42  C    0.475991
    46  O   -0.089844
    49  C    0.128978
    54  C    0.477816
    58  C    0.385199
    62  C    0.271099
 APT charges:
               1
     1  C    0.126607
     2  C   -0.146245
     3  C    0.182673
     4  C   -0.151349
     5  H    0.089695
     6  C    0.467865
     7  N   -0.446934
     8  H    0.072943
     9  H    0.100102
    10  Cl  -0.233255
    11  C    0.935993
    12  O   -0.810830
    13  N   -0.708789
    14  C    0.333320
    15  H    0.032676
    16  H   -0.004176
    17  C    0.247747
    18  C    0.094966
    19  H   -0.015058
    20  Pd   0.143572
    21  C   -0.052954
    22  C    0.106924
    23  C   -0.074248
    24  C    0.350009
    25  C   -0.434775
    26  H   -0.026783
    27  H   -0.029661
    28  C   -0.083586
    29  H    0.024178
    30  H    0.009303
    31  C    0.259615
    32  C    0.231568
    33  C    0.531868
    34  H   -0.063196
    35  H   -0.044242
    36  H    0.014031
    37  C    1.030266
    38  O   -0.820525
    39  H    0.017134
    40  H   -0.015014
    41  H    0.001561
    42  C   -0.001350
    43  H    0.028440
    44  H    0.041555
    45  H    0.002512
    46  O   -0.709978
    47  H    0.291796
    48  H    0.034920
    49  C   -0.051591
    50  H    0.034240
    51  H    0.034575
    52  H    0.041786
    53  H    0.003312
    54  C   -0.010775
    55  H    0.010274
    56  H   -0.013918
    57  H    0.006420
    58  C    0.012159
    59  H    0.000165
    60  H    0.002817
    61  H    0.003554
    62  C    0.008017
    63  H   -0.005205
    64  H   -0.001388
    65  H   -0.005332
 Sum of APT charges =   1.00000
 APT charges with hydrogens summed into heavy atoms:
               1
     1  C    0.126607
     2  C   -0.046143
     3  C    0.255616
     4  C   -0.061654
     6  C    0.467865
     7  N   -0.446934
    10  Cl  -0.233255
    11  C    0.935993
    12  O   -0.810830
    13  N   -0.708789
    14  C    0.361820
    17  C    0.232689
    18  C    0.094966
    20  Pd   0.143572
    21  C   -0.021789
    22  C    0.065126
    23  C   -0.102348
    24  C    0.350009
    25  C   -0.434775
    28  C   -0.015186
    31  C    0.259615
    32  C    0.234880
    33  C    0.424430
    37  C    1.030266
    38  O   -0.820525
    42  C    0.071157
    46  O   -0.418181
    49  C    0.059011
    54  C   -0.007998
    58  C    0.018695
    62  C   -0.003909
 Electronic spatial extent (au):  <R**2>=          13246.2742
 Charge=              1.0000 electrons
 Dipole moment (field-independent basis, Debye):
    X=             -5.5620    Y=              1.8546    Z=             -4.6824  Tot=              7.5034
 Quadrupole moment (field-independent basis, Debye-Ang):
   XX=           -167.3352   YY=           -151.7092   ZZ=           -196.0960
   XY=              4.3884   XZ=            -16.0601   YZ=             -8.8238
 Traceless Quadrupole moment (field-independent basis, Debye-Ang):
   XX=              4.3782   YY=             20.0043   ZZ=            -24.3825
   XY=              4.3884   XZ=            -16.0601   YZ=             -8.8238
 Octapole moment (field-independent basis, Debye-Ang**2):
  XXX=           -153.8002  YYY=             79.2150  ZZZ=            -17.2763  XYY=              2.4662
  XXY=            -21.7912  XXZ=            -77.2283  XZZ=            -39.9258  YZZ=            -21.4086
  YYZ=            -20.6635  XYZ=             20.1657
 Hexadecapole moment (field-independent basis, Debye-Ang**3):
 XXXX=          -9107.6879 YYYY=          -4577.1527 ZZZZ=          -2125.6619 XXXY=             34.2975
 XXXZ=           -372.3006 YYYX=            206.4379 YYYZ=           -300.1021 ZZZX=            -36.4563
 ZZZY=             20.2205 XXYY=          -2401.8696 XXZZ=          -1996.5216 YYZZ=          -1216.9780
 XXYZ=             -5.4637 YYXZ=            -10.6925 ZZXY=             -6.1097
 N-N= 3.968034412007D+03 E-N=-1.222249402113D+04  KE= 1.766277961791D+03
  Exact polarizability: 403.182  17.618 355.182  30.878  -9.411 279.345
 Approx polarizability: 563.230  24.528 524.489  84.744 -18.572 454.346
   1 Symmetry operations used in ECPInt.
 ECPInt:  NShTT=   25878 NPrTT=  135610 LenC2=   22953 LenP2D=   71440.
 LDataN:  DoStor=T MaxTD1= 7 Len=  274
 Calling FoFJK, ICntrl=    100127 FMM=F ISym2X=0 I1Cent= 0 IOpClX= 0 NMat=1 NMatS=1 NMatT=0.
 Defaulting to unpruned grid for atomic number  46.
 Defaulting to unpruned grid for atomic number  46.
 Defaulting to unpruned grid for atomic number  46.
 Defaulting to unpruned grid for atomic number  46.
 Defaulting to unpruned grid for atomic number  46.
 Defaulting to unpruned grid for atomic number  46.
 Defaulting to unpruned grid for atomic number  46.
 Defaulting to unpruned grid for atomic number  46.
 Defaulting to unpruned grid for atomic number  46.
 Defaulting to unpruned grid for atomic number  46.
 Defaulting to unpruned grid for atomic number  46.
 Defaulting to unpruned grid for atomic number  46.
 Defaulting to unpruned grid for atomic number  46.
 Defaulting to unpruned grid for atomic number  46.
 Defaulting to unpruned grid for atomic number  46.
 Defaulting to unpruned grid for atomic number  46.
 Defaulting to unpruned grid for atomic number  46.
 Defaulting to unpruned grid for atomic number  46.
 Defaulting to unpruned grid for atomic number  46.
 Defaulting to unpruned grid for atomic number  46.
 Defaulting to unpruned grid for atomic number  46.
 Defaulting to unpruned grid for atomic number  46.
 Defaulting to unpruned grid for atomic number  46.
 Defaulting to unpruned grid for atomic number  46.
 Defaulting to unpruned grid for atomic number  46.
 Defaulting to unpruned grid for atomic number  46.
 Defaulting to unpruned grid for atomic number  46.
 Defaulting to unpruned grid for atomic number  46.
 Full mass-weighted force constant matrix:
 Low frequencies --- -209.8128  -10.8048   -0.0041   -0.0024   -0.0018    6.7457
 Low frequencies ---    8.4204   20.0667   35.7618
 ******    1 imaginary frequencies (negative Signs) ****** 
 Diagonal vibrational polarizability:
       94.8602385      71.3307258      62.0799136
 Harmonic frequencies (cm**-1), IR intensities (KM/Mole), Raman scattering
 activities (A**4/AMU), depolarization ratios for plane and unpolarized
 incident light, reduced masses (AMU), force constants (mDyne/A),
 and normal coordinates:
                           1         2         3         4         5
                           A         A         A         A         A
       Frequencies ---  -209.8092   19.0217   35.7325   46.2101   49.6599
    Reduced masses ---     7.7138    5.1029    5.7453    5.2113    4.5580
   Force constants ---     0.2001    0.0011    0.0043    0.0066    0.0066
    IR Intensities ---     6.5790    0.2132    0.6514    0.3193    1.0346
 Coord Atom Element:
   1     1     6          0.00069   0.01882   0.04649  -0.00274   0.01276
   2     1     6         -0.02898   0.00084  -0.04861   0.00572   0.00459
   3     1     6         -0.00566   0.04875  -0.05273  -0.01905   0.00475
   1     2     6         -0.00362   0.01824   0.13268  -0.03547   0.00176
   2     2     6         -0.02488   0.01184  -0.08529   0.03990   0.01047
   3     2     6          0.00360   0.07435  -0.15682   0.06841   0.02084
   1     3     6         -0.00739   0.00916   0.16116  -0.07517  -0.01294
   2     3     6         -0.02059   0.01320  -0.11356   0.06065   0.02090
   3     3     6          0.00294   0.10677  -0.16753   0.16002   0.04326
   1     4     6         -0.01055   0.00239   0.09295  -0.08088  -0.01856
   2     4     6         -0.02225   0.00075  -0.09295   0.04033   0.02314
   3     4     6          0.00414   0.10950  -0.06688   0.15758   0.05083
   1     5     1         -0.01555  -0.00366   0.10317  -0.11452  -0.03175
   2     5     1         -0.02079  -0.00124  -0.10408   0.05122   0.03021
   3     5     1          0.01585   0.13349  -0.06832   0.23232   0.07272
   1     6     6          0.00032   0.00517   0.00319  -0.04191  -0.00677
   2     6     6         -0.02530  -0.01052  -0.05276   0.00201   0.01593
   3     6     6          0.00101   0.08078   0.04026   0.05837   0.03298
   1     7     7          0.00621   0.01210  -0.01358  -0.00293   0.01068
   2     7     7         -0.03732  -0.01014  -0.03475  -0.01192   0.00488
   3     7     7         -0.01243   0.05280   0.04162  -0.02731   0.00869
   1     8     1         -0.01103   0.00810   0.23257  -0.10375  -0.02185
   2     8     1         -0.01913   0.02214  -0.14453   0.09023   0.02614
   3     8     1          0.00689   0.12864  -0.25158   0.23540   0.05709
   1     9     1         -0.00830   0.02339   0.17821  -0.03523   0.00248
   2     9     1         -0.02738   0.01759  -0.08947   0.05096   0.00770
   3     9     1          0.00977   0.06924  -0.22839   0.07299   0.01854
   1    10    17         -0.00311   0.00317  -0.10103  -0.05065  -0.01699
   2    10    17          0.00558  -0.02299  -0.02364  -0.02879   0.02988
   3    10    17          0.00551   0.07805   0.17132   0.05632   0.04980
   1    11     6         -0.00487   0.02179   0.01814   0.01129   0.01592
   2    11     6         -0.02328   0.00009  -0.01962  -0.00609   0.00233
   3    11     6         -0.00181   0.00834  -0.03498  -0.06160  -0.00346
   1    12     8         -0.00172   0.04603   0.02265   0.00398   0.00597
   2    12     8         -0.00667   0.00111   0.00477  -0.00166   0.01266
   3    12     8         -0.00157  -0.04279  -0.02586  -0.04364   0.02419
   1    13     7         -0.01439  -0.00201  -0.00727   0.01719   0.02228
   2    13     7         -0.02203  -0.00092  -0.01245  -0.01144  -0.00582
   3    13     7         -0.00175   0.00934  -0.01777  -0.07339  -0.02225
   1    14     6         -0.01286   0.04695  -0.01985  -0.00005   0.00297
   2    14     6          0.00263  -0.00239   0.03951   0.00169   0.01544
   3    14     6         -0.00041  -0.09253   0.02438  -0.02186   0.02927
   1    15     1         -0.00991   0.03030   0.00490   0.00428   0.01007
   2    15     1          0.01162  -0.00866   0.08378   0.00844   0.01691
   3    15     1         -0.00095  -0.14806   0.05971  -0.01390   0.05446
   1    16     1         -0.01756   0.10752  -0.08029  -0.01257  -0.02143
   2    16     1          0.00125  -0.00237   0.02713  -0.01060   0.02668
   3    16     1          0.00004  -0.09407   0.03181  -0.01591   0.02475
   1    17     6         -0.01776  -0.00720  -0.01725   0.01140   0.02250
   2    17     6         -0.00229   0.00199   0.02420   0.01438   0.00042
   3    17     6         -0.00159  -0.05519   0.01231  -0.02075   0.00437
   1    18     6         -0.00922  -0.07913   0.02406   0.06749   0.05952
   2    18     6          0.00120   0.01209   0.04330   0.07784  -0.00316
   3    18     6          0.00105  -0.08592   0.02726  -0.00178   0.02142
   1    19     1         -0.03136   0.00390  -0.05195  -0.02387   0.01323
   2    19     1         -0.00236  -0.00001   0.02369   0.00583   0.00395
   3    19     1          0.00021  -0.04878   0.01462   0.01274  -0.00845
   1    20    46          0.08154   0.00328  -0.02200   0.00427   0.00740
   2    20    46         -0.01193  -0.00730  -0.02758  -0.02351  -0.02575
   3    20    46         -0.01201   0.02652   0.01851  -0.06928  -0.02270
   1    21     6          0.04964  -0.02351  -0.06486  -0.01242  -0.03003
   2    21     6         -0.00355   0.05229   0.14103   0.01748   0.03497
   3    21     6          0.01021  -0.15631  -0.01821   0.03044  -0.04219
   1    22     6          0.00452  -0.06318  -0.05592   0.03919   0.00718
   2    22     6          0.03599   0.01885   0.13718  -0.02333  -0.07665
   3    22     6          0.02141  -0.12299  -0.02091   0.01968  -0.01887
   1    23     6          0.01957  -0.06273  -0.06170   0.03355   0.00204
   2    23     6          0.19604  -0.01167   0.06545  -0.04415  -0.10461
   3    23     6          0.02400  -0.06309   0.00217  -0.03547  -0.05680
   1    24     6          0.01379   0.00010  -0.01885   0.00543  -0.00032
   2    24     6          0.44809   0.00737   0.01107  -0.02718  -0.02267
   3    24     6          0.11451  -0.02414  -0.00461  -0.04010  -0.01641
   1    25     6          0.03391   0.05253   0.00382  -0.02405  -0.01191
   2    25     6          0.09077   0.02580   0.00955  -0.01194   0.05092
   3    25     6          0.02870  -0.05452  -0.01869  -0.02057  -0.00186
   1    26     1          0.05298  -0.11125  -0.09308   0.06045   0.00946
   2    26     1         -0.02072   0.01482   0.17363  -0.03931  -0.13144
   3    26     1          0.00633  -0.14709  -0.01400   0.01896  -0.05320
   1    27     1          0.10444  -0.08393  -0.10957   0.01402  -0.02378
   2    27     1          0.21879  -0.01607   0.05417  -0.04803  -0.10853
   3    27     1         -0.15373  -0.08134   0.02751  -0.07286  -0.14832
   1    28     6         -0.12990   0.01248  -0.02183  -0.07657   0.08300
   2    28     6         -0.05261  -0.05238  -0.00602  -0.10086  -0.00999
   3    28     6         -0.05539   0.05326  -0.00230   0.04281  -0.07261
   1    29     1         -0.07994   0.02033  -0.04325  -0.12631   0.15260
   2    29     1         -0.06636  -0.07237   0.01084  -0.10564  -0.03473
   3    29     1         -0.02870   0.04177  -0.00383   0.00042  -0.04090
   1    30     1         -0.09957   0.01360  -0.02616  -0.08384   0.09479
   2    30     1          0.03636  -0.04815  -0.02050  -0.12685   0.03377
   3    30     1         -0.04635   0.03547   0.02297   0.08108  -0.13615
   1    31     6         -0.12302   0.00467   0.00130  -0.01171  -0.00697
   2    31     6         -0.15234  -0.01892  -0.01667  -0.04511  -0.02443
   3    31     6         -0.06383   0.05623  -0.01282   0.01321  -0.03262
   1    32     6         -0.23681   0.00235   0.00802  -0.00208  -0.02271
   2    32     6         -0.28554  -0.02299   0.01067  -0.02111  -0.05810
   3    32     6         -0.07223   0.06291  -0.03526  -0.04853   0.07228
   1    33     6         -0.12269  -0.00272   0.02595   0.05411  -0.10666
   2    33     6         -0.04337   0.01728  -0.04196  -0.02187   0.00132
   3    33     6         -0.00336   0.07524  -0.01101   0.08061  -0.09258
   1    34     1         -0.12674   0.00029   0.02291   0.03534  -0.08344
   2    34     1         -0.06688   0.02551  -0.04551  -0.08891   0.07587
   3    34     1         -0.00691   0.06660   0.01468   0.08469  -0.13379
   1    35     1         -0.10837  -0.00118   0.04403   0.06056  -0.13383
   2    35     1          0.01478   0.04282  -0.05922   0.06953  -0.05704
   3    35     1         -0.02386   0.06864  -0.01293   0.05562  -0.06884
   1    36     1          0.08291  -0.06820  -0.12397  -0.04639  -0.08181
   2    36     1         -0.00358   0.05002   0.13564   0.01687   0.03673
   3    36     1          0.03256  -0.15840   0.01156   0.00933  -0.11457
   1    37     6          0.06125   0.05283  -0.02093  -0.03881  -0.02658
   2    37     6         -0.01657   0.03414   0.07713   0.02126   0.09131
   3    37     6          0.01443  -0.12596  -0.02374   0.01806  -0.01631
   1    38     8          0.06318   0.11230  -0.00952  -0.07730  -0.04314
   2    38     8         -0.02264   0.02824   0.08222   0.05649   0.18138
   3    38     8          0.01297  -0.15857  -0.03045   0.03795  -0.01080
   1    39     1          0.04284  -0.01233  -0.05173  -0.00718  -0.02030
   2    39     1         -0.03854   0.09607   0.19752   0.04757   0.08459
   3    39     1         -0.02320  -0.20253  -0.03703   0.06789  -0.01143
   1    40     1         -0.10126  -0.04709  -0.00880   0.06125   0.03538
   2    40     1          0.00702   0.02184   0.15246  -0.02457  -0.08387
   3    40     1          0.04616  -0.11683  -0.04587   0.05499   0.06464
   1    41     1         -0.04450  -0.09267  -0.05547   0.07146   0.02604
   2    41     1          0.08612  -0.04389   0.06425  -0.07706  -0.18721
   3    41     1          0.10262  -0.03330  -0.00063  -0.04144  -0.03371
   1    42     6         -0.01635   0.11907   0.05333  -0.04690  -0.01629
   2    42     6          0.08649   0.02543  -0.05915  -0.02100   0.10469
   3    42     6          0.01319  -0.02762  -0.02774  -0.03310   0.02030
   1    43     1         -0.08088   0.12257   0.07869  -0.05513  -0.02450
   2    43     1          0.02892   0.00971  -0.06623  -0.02783   0.10846
   3    43     1         -0.02570  -0.07302  -0.08898  -0.03534   0.04542
   1    44     1          0.01620   0.18097   0.06799  -0.05445  -0.00719
   2    44     1          0.04461   0.01128  -0.09721  -0.03239   0.12470
   3    44     1          0.04891  -0.02308   0.00593  -0.02182  -0.00091
   1    45     1         -0.03375   0.11101   0.05691  -0.04656  -0.01883
   2    45     1          0.15108   0.04482  -0.07612  -0.01759   0.11130
   3    45     1         -0.02414   0.03285  -0.00605  -0.05135   0.02949
   1    46     8         -0.09069  -0.01453   0.02892   0.12924  -0.19069
   2    46     8         -0.05379   0.00755  -0.03538  -0.03109  -0.00162
   3    46     8          0.05721   0.11455  -0.04036   0.17315  -0.13175
   1    47     1         -0.15526  -0.01970   0.04370   0.15712  -0.23762
   2    47     1         -0.04186   0.02911  -0.04984  -0.02126   0.01607
   3    47     1          0.00941   0.12949  -0.03996   0.20790  -0.15887
   1    48     1         -0.20854   0.01147  -0.01531  -0.06759   0.06495
   2    48     1         -0.03705  -0.06181  -0.00105  -0.11216  -0.01125
   3    48     1         -0.09343   0.07844  -0.01541   0.07203  -0.06807
   1    49     6         -0.04582   0.00745  -0.00073  -0.04788   0.04889
   2    49     6          0.05421  -0.06054   0.05278  -0.01677  -0.14734
   3    49     6         -0.01217   0.08184  -0.05994  -0.08561   0.16373
   1    50     1         -0.07310   0.00585   0.00137  -0.03285   0.03444
   2    50     1          0.23727  -0.06200   0.05033   0.04636  -0.11621
   3    50     1          0.06738   0.08882  -0.06757  -0.15430   0.21784
   1    51     1          0.18687  -0.00010   0.00497  -0.00501   0.06595
   2    51     1          0.00820  -0.06416   0.05841  -0.03829  -0.16838
   3    51     1         -0.10719   0.11057  -0.09684  -0.02732   0.25147
   1    52     1         -0.10032   0.01868  -0.01137  -0.13481   0.09250
   2    52     1          0.07320  -0.08873   0.08757  -0.06266  -0.24451
   3    52     1          0.00831   0.06374  -0.03820  -0.09745   0.10073
   1    53     1         -0.13605   0.00029   0.02828   0.04544  -0.09819
   2    53     1         -0.02486   0.01250  -0.00868  -0.01529  -0.00855
   3    53     1         -0.00668   0.07733  -0.04922  -0.06189   0.11673
   1    54     6         -0.00538  -0.10136   0.10394   0.10924   0.08323
   2    54     6          0.00195   0.01448   0.04459   0.09741  -0.00378
   3    54     6         -0.00121  -0.09600   0.03400  -0.05213   0.02779
   1    55     1         -0.00131  -0.14579   0.13517   0.13834   0.10025
   2    55     1          0.00448   0.01854   0.06281   0.14241  -0.00301
   3    55     1          0.00051  -0.11541   0.04698  -0.04098   0.03513
   1    56     1         -0.00450  -0.10481   0.12575   0.11923   0.08925
   2    56     1          0.00063   0.01546   0.00064   0.08199  -0.01491
   3    56     1         -0.00576  -0.05453   0.00563  -0.09285   0.01411
   1    57     1         -0.00671  -0.07441   0.11321   0.10463   0.08031
   2    57     1          0.00191   0.01089   0.07280   0.08648   0.00577
   3    57     1          0.00009  -0.12587   0.05274  -0.05845   0.04040
   1    58     6         -0.00866  -0.07956  -0.00366   0.05663   0.05481
   2    58     6          0.00120   0.01603   0.10913   0.10195   0.00727
   3    58     6          0.00634  -0.15676   0.06505   0.07847   0.05670
   1    59     1         -0.00824  -0.06492  -0.06180   0.02575   0.03848
   2    59     1         -0.00022   0.01576   0.10748   0.08178   0.00800
   3    59     1          0.01023  -0.15579   0.06914   0.13835   0.05407
   1    60     1         -0.00863  -0.13109   0.02147   0.08949   0.08120
   2    60     1          0.00502   0.01842   0.13404   0.16872   0.00767
   3    60     1          0.00635  -0.17859   0.07562   0.09219   0.06789
   1    61     1         -0.00886  -0.04482   0.00780   0.04646   0.04194
   2    61     1         -0.00194   0.01844   0.13975   0.07792   0.01317
   3    61     1          0.00375  -0.19259   0.07976   0.06826   0.07607
   1    62     6         -0.00592  -0.13075   0.01781   0.09444   0.07557
   2    62     6          0.00384   0.01560  -0.00076   0.10317  -0.00932
   3    62     6          0.00100  -0.03903  -0.00380  -0.00453   0.00336
   1    63     1         -0.00500  -0.17297   0.03922   0.11262   0.09913
   2    63     1          0.00573   0.03259  -0.01062   0.11595  -0.00041
   3    63     1          0.00123  -0.05792   0.00587   0.00174   0.01217
   1    64     1         -0.00588  -0.13010  -0.01581   0.10056   0.05752
   2    64     1          0.00345   0.01230   0.00426   0.09928  -0.01006
   3    64     1          0.00432  -0.02513  -0.02748   0.01125   0.00896
   1    65     1         -0.00621  -0.12917   0.02831   0.09171   0.08001
[...]
 ,0.00000388,-0.00000426,0.00001074,-0.00000006,0.00000419,-0.00004446,
 -0.00002653,-0.00002413,0.00002992,0.00001097,0.00000517,0.00000271,0.
 00000144,-0.00000129,0.00000273,0.00000297,0.00000066,0.00003932,0.000
 07794,0.00001051,0.00001118,0.00000177,-0.00003040,-0.00000164,-0.0000
 2090,0.00002054,0.00011618,-0.00024591,0.00005764,0.00003532,0.0000146
 0,-0.00010128,-0.00051907,0.00014175,-0.00043734,0.00048655,-0.0000918
 4,0.00024952,-0.00011515,0.00006013,-0.00000635,-0.00000086,0.00000086
 ,0.00000022,-0.00004364,-0.00000792,-0.00000791,0.00002333,0.00000237,
 0.00001645,0.00000132,0.00000005,-0.00000016,-0.00000264,0.00000015,0.
 00000098,0.00000047,-0.00000336,0.00000263,-0.00000451,0.00000265,0.00
 000833,0.00000221,-0.00000198,-0.00000336,0.00000260,0.00000554,-0.000
 00137,0.00000678,-0.00000804,-0.00001340,0.00034524,-0.00040413,-0.000
 09508,-0.00002684,0.00012204,-0.00006616,-0.00000124,-0.00000207,0.000
 02304,0.00002051,0.00000667,0.00000665,0.00001054,-0.00000406,-0.00000
 497,-0.00000446,0.00000202,0.00000417,-0.00000085,0.00000027,-0.000003
 84,-0.00002073,0.00000333,-0.00000108,-0.00061535,0.00073075,0.0011344
 0,0.00060662,-0.00051276,0.00010748,-0.00016758,-0.00007391,0.00003080
 ,-0.00012548,0.00017405,-0.00026195,-0.00072450,0.00004869,-0.00052462
 ,0.00005205,-0.00001158,-0.00014534,-0.00004038,0.00043660,-0.00025299
 ,-0.00016270,-0.00016851,-0.00002738,0.00915060,-0.04826229,-0.0243544
 3,-0.01219103,0.05045990,-0.00004406,-0.00003863,-0.00000249,0.0000604
 9,0.00006056,0.00000583,-0.00004027,-0.00002500,-0.00001239,0.00005001
 ,-0.00002601,0.00003997,-0.00000056,-0.00000142,0.00000111,-0.00004365
 ,0.00007147,-0.00008003,0.00003501,0.00001939,0.00001958,0.00000449,0.
 00000398,-0.00000108,-0.00000126,-0.00002387,0.00000162,0.00004363,-0.
 00001433,0.00003711,-0.00008208,-0.00023180,0.00004167,0.00016750,0.00
 047238,-0.00008913,0.00000318,-0.00006026,0.00034900,0.00080284,-0.000
 82128,-0.00084820,-0.00005049,0.00003135,0.00006831,-0.00016972,0.0002
 7663,-0.00026195,-0.00369249,0.00287383,-0.00132843,0.00821156,-0.0021
 4930,-0.02051901,-0.00005583,-0.00006912,0.00035444,-0.00009824,0.0000
 3902,-0.00006445,0.00000078,-0.00000060,0.00000010,-0.00000670,0.00000
 909,-0.00000977,0.00002793,-0.00000374,0.00001539,-0.00008222,-0.00000
 171,-0.00000933,0.00011223,0.00002677,-0.00002272,0.00000497,0.0000003
 9,-0.00000160,-0.00000254,-0.00000265,0.00000310,-0.00003784,0.0000033
 3,-0.00000795,0.00000368,0.00000219,0.00000086,0.00001768,0.00001021,0
 .00001683,-0.00001435,-0.00002346,0.00002200,-0.00000801,0.00005620,0.
 00000788,-0.00022254,0.00016713,-0.00006482,0.00009686,0.00002084,0.00
 003495,0.00001484,0.00000354,0.00000806,-0.00000299,0.00000013,-0.0000
 0020,-0.00009063,-0.00002771,-0.00002322,0.00004793,0.00000808,0.00005
 077,0.00000242,-0.00000048,0.00000082,0.00000024,-0.00000218,0.0000014
 8,-0.00000348,0.00000086,0.00000499,0.00000306,0.00000323,0.00001099,-
 0.00000087,-0.00000405,0.00000180,0.00000507,0.00000488,0.00000199,0.0
 0000278,-0.00000706,-0.00001430,0.00005660,-0.00013807,0.00002312,0.00
 000324,0.00002563,-0.00003503,0.00001266,-0.00000419,0.00000096,0.0000
 0532,-0.00000197,0.00000283,0.00000580,0.00000169,-0.00000015,-0.00000
 123,0.00000210,-0.00000214,-0.00000285,0.00000022,0.00000209,0.0000030
 6,-0.00000381,-0.00000286,0.00077920,-0.00148719,0.00080325,-0.0002146
 1,0.00067848,0.00054396,-0.00003501,0.00009467,-0.00008313,-0.00018594
 ,-0.00015516,0.00039433,0.00140655,-0.00032389,0.00074733,-0.00006468,
 0.00005943,-0.00007294,-0.00075994,-0.00012713,0.00020039,-0.00004100,
 0.00006671,0.00042530,0.09504170,-0.02335248,-0.27242498,-0.10157745,0
 .02336833,0.29481219,0.00001065,0.00004137,-0.00000045,-0.00000812,-0.
 00000699,-0.00001652,0.00000500,0.00000311,0.00000044,0.00000330,0.000
 00381,-0.00001341,0.00000232,0.00000080,-0.00000312,-0.00001141,0.0000
 0145,-0.00001679,-0.00003118,0.00006766,0.00005912,-0.00000113,-0.0000
 0083,0.00000112,-0.00000048,0.00000168,0.00000158,-0.00000082,0.000001
 87,0.00001463,-0.00015589,0.00009655,-0.00007284,0.00004498,-0.0001141
 6,-0.00002290,-0.00019581,0.00002264,0.00031164,-0.00006795,-0.0000269
 1,0.00009288,0.00001529,0.00005568,0.00001583,0.00002086,-0.00000602,0
 .00000543,0.00037241,-0.00033999,0.00048283,-0.00148321,0.01642049,0.0
 0547206,0.00017485,-0.00021574,-0.00020343,0.00018192,-0.00007886,-0.0
 0004726,0.00000691,-0.00000152,-0.00000071,-0.00000723,0.00001215,-0.0
 0001253,0.00004484,-0.00001328,0.00001246,-0.00009993,-0.00004458,-0.0
 0004926,0.00007880,0.00004981,0.00000890,0.00000907,0.00000152,-0.0000
 0426,0.00000407,0.00000730,-0.00000305,0.00011654,0.00015156,-0.000018
 47,-0.00000007,0.00000248,-0.00006780,-0.00001120,-0.00001037,0.000032
 24,-0.00008865,-0.00043596,-0.00001756,0.00003734,0.00001161,-0.000119
 10,-0.00045003,0.00098277,0.00093205,-0.00027414,0.00087334,0.00106801
 ,-0.00061711,0.00008397,-0.00021724,0.00000049,0.00000410,-0.00000226,
 -0.00011706,-0.00003763,-0.00002980,0.00005901,0.00002103,0.00005164,0
 .00000397,0.00000048,-0.00000041,-0.00000547,0.00000174,0.00000298,-0.
 00000109,-0.00000386,0.00000664,-0.00002581,0.00000257,-0.00000568,-0.
 00001385,0.00000085,0.00000400,0.00003013,0.00001053,0.00000719,0.0000
 2373,-0.00004001,-0.00002191,0.00011571,-0.00055241,-0.00030605,0.0000
 9685,0.00017366,0.00001260,0.00000937,-0.00001014,0.00003493,0.0000253
 4,0.00001150,0.00000168,0.00001637,-0.00000690,-0.00000643,-0.00000521
 ,0.00000381,0.00000858,-0.00000316,0.,-0.00000870,-0.00004521,0.000002
 36,0.00000105,-0.00208758,0.00171432,-0.00271629,-0.00000462,-0.000277
 03,-0.00020262,0.00019181,0.00018589,-0.00002169,0.00033280,0.00121647
 ,0.00009484,0.00108802,0.00100464,0.00071519,-0.00046455,-0.00018375,-
 0.00056856,-0.00014572,0.00007275,0.00017243,0.00021740,-0.00026162,0.
 00013589,-0.04640192,-0.00282555,-0.00115609,-0.00040898,0.01214963,0.
 00204740,0.04805937,0.00003545,0.00002638,-0.00004095,-0.00002327,-0.0
 0000676,-0.00000451,0.00002486,0.00002796,0.00000864,-0.00001639,0.000
 02887,-0.00003305,0.00000466,0.00000140,-0.00000629,0.00003319,-0.0000
 4627,0.00002638,-0.00004441,0.00008719,0.00006049,0.00000162,-0.000000
 83,-0.00000311,0.00000787,0.00000667,-0.00001861,-0.00003329,0.0000123
 7,-0.00001275,0.00011539,0.00006495,-0.00012186,-0.00000613,0.00024567
 ,-0.00006719,-0.00021717,0.00010495,0.00035493,0.00013008,0.00009474,0
 .00023165,-0.00007580,0.00000786,-0.00010299,-0.00001136,-0.00003080,0
 .00007377,0.00000953,-0.00041211,-0.00100701,-0.00060336,-0.01682101,-
 0.00527026,-0.00023427,0.00044245,0.00062083,0.00017548,-0.00009769,0.
 00002850,0.00000666,-0.00000229,-0.00000216,-0.00000294,0.00000815,-0.
 00000762,0.00002736,-0.00001460,0.00000444,-0.00006969,-0.00005277,-0.
 00004596,0.00003158,0.00003988,0.00002258,0.00000659,0.00000078,-0.000
 00362,0.00000655,0.00001109,-0.00000507,0.00004660,0.00013707,0.000030
 77,0.00002287,0.00000219,-0.00004732,0.00000363,-0.00003998,0.00003137
 ,0.00017488,-0.00037594,-0.00005092,0.00006923,0.00001421,-0.00012896,
 0.00017446,-0.00065213,-0.00158892,0.00165664,-0.00090086,-0.00068294,
 -0.00036798,0.00018590,0.00020042,0.00000253,0.00000515,-0.00000261,-0
 .00007442,-0.00002967,-0.00001857,0.00003678,0.00002154,0.00002882,0.0
 0000243,0.00000077,-0.00000064,-0.00000659,0.00000414,0.00000232,0.000
 00087,-0.00000432,0.00000533,-0.00001979,-0.00000195,-0.00001029,-0.00
 001188,0.00000232,0.00000273,0.00002094,0.00000589,0.00000612,0.000009
 32,-0.00003037,-0.00001046,0.00060145,-0.00044562,-0.00023604,-0.00003
 349,0.00014074,-0.00001781,-0.00000422,-0.00000458,0.00004242,0.000025
 99,0.00001045,0.00000322,0.00001527,-0.00000960,-0.00000453,-0.0000062
 8,0.00000395,0.00000980,-0.00000563,-0.00000136,-0.00000669,-0.0000319
 4,0.00000441,0.00000324,0.00273221,-0.00085591,0.00382491,-0.00011949,
 0.00030707,-0.00001388,-0.00012041,0.00033088,-0.00002572,0.00018248,-
 0.00111684,-0.00032392,-0.00151676,0.00075355,-0.00066162,0.00030191,0
 .00058002,0.00014840,0.00015006,-0.00011930,0.00005442,-0.00004928,0.0
 0033152,0.00015406,-0.00242164,-0.29610499,-0.06018892,-0.00051780,-0.
 00145226,0.00031821,-0.00148677,0.32371221,0.00000122,0.00002003,0.000
 01608,-0.00001172,-0.00002272,-0.00000705,0.00000806,0.00000712,0.0000
 0103,-0.00000869,-0.00000062,-0.00000710,0.00000034,0.00000077,0.00000
 033,0.00001822,-0.00000487,0.00001297,-0.00001488,-0.00002098,0.000014
 39,-0.00000130,-0.00000121,0.00000029,-0.00000268,0.00000529,0.0000030
 9,-0.00000635,0.00000023,-0.00000269,-0.00010340,0.00011805,0.00000841
 ,0.00004221,-0.00025746,0.00005853,0.00003759,-0.00022661,-0.00002458,
 -0.00018691,-0.00001722,0.00015121,0.00004054,0.00001057,0.00004149,0.
 00002050,-0.00001818,0.00000934,0.00022839,0.00086580,0.00116673,0.000
 46604,0.02073591,0.00465084,-0.00017275,-0.00017183,-0.00058478,0.0000
 1091,0.00006751,-0.00001352,-0.00000108,-0.00000107,0.00000005,0.00000
 531,-0.00000999,0.00000852,-0.00002981,0.00000595,-0.00001311,0.000072
 70,-0.00000121,0.00001612,-0.00007740,-0.00002040,0.00002239,-0.000005
 40,-0.00000064,0.00000201,0.00000032,0.00000090,-0.00000302,0.00001000
 ,-0.00003480,-0.00000707,-0.00001183,0.00000257,0.00000914,-0.00000873
 ,0.,-0.00004053,-0.00003781,0.00009271,-0.00011487,0.00000174,-0.00003
 192,0.00006121,0.00112901,-0.00107666,-0.00064736,0.00117487,-0.001413
 43,-0.00124257,-0.00034877,0.00003719,0.00017468,0.00000205,-0.0000001
 1,-0.00000003,0.00008114,0.00002384,0.00001663,-0.00004238,-0.00000332
 ,-0.00003872,-0.00000237,0.00000031,-0.00000060,0.00000104,0.00000187,
 -0.00000100,0.00000236,0.00000096,-0.00000511,-0.00000528,-0.00000099,
 -0.00001842,-0.00000877,0.00000472,0.00000267,0.00000590,-0.00000283,0
 .00000020,0.00000178,-0.00000901,0.00001678,-0.00007203,0.00039025,-0.
 00009034,-0.00000959,-0.00002347,0.00017278,-0.00000566,0.00000196,-0.
 00000285,-0.00002046,-0.00000466,-0.00000784,-0.00000941,-0.00000063,0
 .00000513,0.00000210,-0.00000221,0.00000156,0.00000098,-0.00000004,0.0
 0000015,0.00000624,-0.00000118,0.00000747,-0.00222615,0.00163849,-0.00
 257655,-0.00028876,0.00012281,0.00025144,0.00004790,-0.00010503,-0.000
 21935,-0.00031519,0.00113899,0.00066374,0.00093715,0.00018860,0.000746
 14,-0.00020838,-0.00014613,0.00007691,-0.00002769,-0.00020734,-0.00006
 559,0.00033046,0.00002985,-0.00005633,-0.00109701,-0.06060429,-0.06094
 367,-0.00151616,-0.02809664,-0.00535706,0.00177024,0.06690566,0.065513
 49,-0.00000578,0.00007778,0.00003002,-0.00000452,-0.00000360,-0.000014
 69,0.00000299,0.00000232,-0.00000710,0.00001360,0.00000201,0.00000378,
 0.00000098,0.00000408,-0.00000108,-0.00002438,-0.00000588,-0.00003944,
 0.00012976,0.00007870,-0.00010007,-0.00000109,-0.00000064,0.00000071,-
 0.00000458,-0.00000093,0.00000155,0.00001384,-0.00000432,0.00002145,-0
 .00004550,0.00063993,-0.00016306,0.00081412,-0.00022851,0.00008099,0.0
 0073504,-0.00063572,0.00211106,-0.00030760,-0.00026926,-0.00009678,0.0
 0002407,-0.00010230,0.00008083,-0.00000359,0.00004981,-0.00005933,-0.0
 0094634,-0.00024737,0.00058051,-0.01555795,-0.00650751,0.00060991,-0.0
 0000921,0.00004285,0.00001234,-0.00004602,-0.00002980,0.00012355,-0.00
 000213,-0.00000278,0.00000399,0.00000364,-0.00000718,-0.00000012,-0.00
 002097,0.00000269,-0.00000727,-0.00005528,-0.00000852,-0.00004068,0.00
 004695,-0.00000780,0.00003700,-0.00000363,-0.00000119,0.00000283,0.000
 00079,0.00000155,-0.00000174,-0.00001838,0.00000087,-0.00000839,0.0000
 1496,0.00000100,0.00000483,0.00000568,-0.00001237,0.00000191,-0.000006
 10,0.00002768,0.00008808,0.00009299,0.00000556,0.00000670,-0.00018987,
 0.00010829,-0.00001563,0.00003803,-0.00007148,-0.00001366,-0.00006501,
 0.00023933,0.00021873,0.00000290,0.00000028,-0.00000006,0.00007083,0.0
 0003296,-0.00000920,-0.00003426,-0.00000799,-0.00001737,-0.00000155,0.
 00000129,-0.00000119,-0.00000071,0.00000363,-0.00000175,0.00000346,-0.
 00000112,-0.00000614,-0.00008990,-0.00008180,-0.00004538,0.00003254,0.
 00001691,-0.00000316,0.00003087,0.00000498,-0.00000335,0.00019139,-0.0
 0002435,-0.00007859,0.00007132,0.00013238,0.00008594,-0.00004621,-0.00
 002275,-0.00002145,0.00000589,0.00000895,0.00000412,-0.00000801,0.0000
 0871,0.00000677,-0.00000344,-0.00000232,0.00000165,-0.00000354,0.00000
 144,-0.00000019,-0.00000138,-0.00000475,0.00000138,-0.00000154,0.00000
 263,-0.00000399,0.00050222,-0.00122991,0.00029560,-0.00015376,0.000018
 34,-0.00004210,0.00009451,0.00069484,-0.00004167,0.00028411,0.00012356
 ,0.00000329,-0.00142173,0.00337374,-0.00322507,0.00021140,-0.00011552,
 0.00003716,0.00050334,0.00007496,0.00001720,-0.00109082,-0.00056347,-0
 .00019221,-0.28252458,-0.08090253,-0.00655242,-0.00967971,-0.00371188,
 -0.00144717,0.00183509,0.00128502,0.00042750,0.30660177,0.00001589,-0.
 00003472,0.00006426,0.00001451,0.00001351,0.00000976,-0.00001347,-0.00
 001681,-0.00000399,0.00001101,-0.00000702,0.00002995,-0.00000482,0.000
 00382,0.00000436,-0.00009175,-0.00000388,-0.00005066,0.00020868,0.0000
 5683,-0.00030831,0.00000115,0.00000042,0.00000092,-0.00000198,-0.00000
 308,0.00000638,0.00003849,-0.00001295,0.00001165,0.00010490,0.00001667
 ,0.00014887,0.00007848,-0.00006507,0.00004504,0.00011054,-0.00055884,0
 .00122826,0.00008090,-0.00012009,-0.00017348,0.00003146,0.00002094,-0.
 00000894,-0.00000987,0.00003417,-0.00004051,-0.00072929,0.00054549,-0.
 00055082,0.01608839,0.00511981,-0.00162906,-0.00001083,0.00005124,0.00
 013440,-0.00020815,0.00024127,-0.00005542,-0.00001829,-0.00000054,0.00
 000373,0.00000752,-0.00001510,0.00000646,-0.00003281,0.00001917,-0.000
 00330,0.00001756,0.00003620,0.00004259,-0.00002295,-0.00003802,-0.0000
 6506,-0.00000910,-0.00000159,0.00000627,-0.00000493,-0.00000905,0.0000
 1126,-0.00005558,-0.00005468,0.00001216,0.00000391,0.00000253,0.000030
 16,0.00001137,-0.00000032,-0.00000939,0.00008424,0.00020508,0.00006741
 ,0.00002783,-0.00002048,-0.00000496,-0.00003889,-0.00042769,-0.0002603
 2,-0.00021750,0.00020956,0.00003270,0.00051790,-0.00068946,-0.00040691
 ,-0.00000233,-0.00000609,0.00000489,0.00009230,0.00003570,0.00002175,-
 0.00005583,-0.00003081,-0.00001753,-0.00000507,-0.00000224,0.00000268,
 0.00000385,-0.00000075,-0.00000382,0.00000004,-0.00000180,-0.00000166,
 0.00011937,0.00004000,0.00005542,-0.00001769,-0.00001421,-0.00000034,-
 0.00001190,0.00000129,-0.00000320,-0.00002049,0.00000575,-0.00004384,-
 0.00002405,0.00034529,0.00021530,-0.00010893,-0.00005665,-0.00001358,0
 .00000424,0.00000789,-0.00000206,0.00000946,0.00001349,0.00001431,-0.0
 0000665,0.00000088,-0.00000030,-0.00000695,-0.00000036,0.00000261,-0.0
 0000245,-0.00000205,0.00000822,0.00002998,-0.00001744,-0.00000755,0.00
 059767,0.00137084,-0.00020959,0.00005743,-0.00002330,-0.00007127,0.000
 10597,-0.00062819,0.00015027,-0.00024947,0.00015361,-0.00006076,0.0014
 5752,-0.00172474,0.00208903,0.00013388,0.00024901,0.00024986,-0.000112
 49,-0.00024341,0.00001731,0.00094075,0.00071752,0.00035142,-0.08236242
 ,-0.07683637,-0.00255142,0.00419230,0.00037743,0.00034760,-0.02848907,
 -0.00813458,0.00012080,0.08774650,0.07990695,-0.00000221,0.00008926,0.
 00000446,-0.00005770,-0.00006492,-0.00001993,0.00004180,0.00002658,0.0
 0001992,-0.00006330,0.00002119,-0.00005805,0.00000046,-0.00000450,0.00
 000157,0.00014211,-0.00007773,0.00016062,-0.00007284,-0.00005546,0.000
 04111,-0.00000680,-0.00000393,0.00000090,-0.00000257,0.00001497,0.0000
 0345,-0.00007451,0.00002660,-0.00006578,-0.00023787,0.00085977,-0.0003
 6747,0.00069699,-0.00029890,0.00014712,0.00013477,-0.00016795,-0.00097
 234,-0.00026453,0.00001462,0.00024661,0.00001527,-0.00008261,0.0000718
 2,0.00004327,-0.00001776,0.00003776,-0.00073143,-0.00089138,0.00069745
 ,-0.01959014,-0.00825696,-0.00072139,-0.00001060,0.00016523,-0.0000947
 9,0.00041649,0.00016499,-0.00054749,0.00000508,0.00000124,-0.00000271,
 0.00001485,-0.00003219,0.00003588,-0.00014206,0.00003634,-0.00005320,0
 .00029574,-0.00012612,0.00012734,-0.00022628,-0.00010083,0.00008986,-0
 .00001955,0.00000152,0.00000364,0.00000736,0.00000838,-0.00000988,-0.0
 0000318,0.00004157,-0.00001114,0.00000666,-0.00000838,-0.00000607,-0.0
 0000373,-0.00001822,-0.00001656,0.00003727,-0.00003426,-0.00009539,0.0
 0011686,-0.00013181,0.00001675,0.00017302,-0.00007239,0.00011420,0.000
 00898,0.00039595,-0.00001416,0.00038935,-0.00059437,-0.00014005,0.0000
 0338,-0.00000188,0.00000191,0.00024179,0.00010505,0.00007029,-0.000109
 98,-0.00002862,-0.00014393,-0.00000540,0.00000045,-0.00000392,-0.00000
 132,0.00000323,-0.00000257,0.00000891,-0.00000102,-0.00002047,-0.00004
 329,-0.00003972,-0.00007538,0.00002261,0.00001303,-0.00001529,-0.00004
 520,-0.00002134,-0.00001552,0.00011050,0.00002001,0.00004165,-0.000074
 30,0.00018112,-0.00000410,-0.00001056,-0.00002681,0.00003534,0.0000035
 3,0.00000533,0.00001557,-0.00000056,0.00002364,-0.00000293,-0.00001211
 ,-0.00000568,0.00000460,-0.00000914,-0.00000200,0.00000646,-0.00000004
 ,-0.00000560,-0.00000289,0.00000334,0.00000378,0.00001128,0.00070175,-
 0.00097673,0.00031694,0.00012723,0.00010885,-0.00003014,0.00006340,0.0
 0022327,0.00035150,0.00010196,-0.00013742,-0.00016092,-0.00179330,0.00
 293786,-0.00288038,0.00030488,0.00012809,-0.00005187,-0.00014329,0.000
 09106,0.00023733,-0.00148239,-0.00025894,0.00022361,-0.00578116,-0.001
 91100,-0.04558343,0.02704682,0.01016521,0.00228295,-0.00762528,-0.0024
 3070,-0.00181223,0.00736017,0.00100993,0.04858248\\0.00000013,-0.00000
 025,-0.00000149,0.00000209,-0.00000165,-0.00000239,0.00000088,0.000000
 66,-0.00000017,-0.00000015,-0.00000036,0.00000217,-0.00000157,0.000000
 66,0.00000476,0.00000008,0.00000128,0.00000177,0.00000221,-0.00000068,
 0.00000009,0.00000176,-0.00000021,-0.00000079,0.00000356,-0.00000031,-
 0.00000425,-0.00000544,0.00000329,0.00000716,0.00000074,-0.00000035,-0
 .00001124,0.00000286,-0.00000251,-0.00000866,-0.00000056,-0.00000123,-
 0.00000761,0.00000289,-0.00000155,-0.00000942,0.00000376,-0.00000024,-
 0.00001152,0.00000298,-0.00000215,-0.00000923,0.00000094,0.00000033,-0
 .00000202,-0.00000306,0.00000129,-0.00000662,0.00000243,-0.00000011,-0
 .00000728,0.00000259,-0.00000450,-0.00000192,0.00000033,0.00000347,0.0
 0001314,0.00000179,-0.00000034,0.00000957,0.00000221,0.00000428,0.0000
 0510,0.00000243,0.00000985,0.00001628,0.00000186,-0.00000233,0.0000045
 8,0.00000437,0.00000067,0.00001039,0.00000170,-0.00000124,0.00000854,0
 .00000690,-0.00000342,-0.00000119,0.00000593,0.00000089,-0.00000067,0.
 00000430,-0.00000331,-0.00000289,0.00001183,-0.00000319,-0.00000310,-0
 .00001621,-0.00001354,0.00000662,-0.00000082,0.00000287,-0.00000057,0.
 00000065,0.00000051,-0.00000131,-0.00000154,0.00000261,0.00000008,0.00
 000334,0.00000260,0.00001184,-0.00000546,-0.00000480,0.00000822,-0.000
 00653,0.00000632,0.00001133,-0.00000032,-0.00000054,0.00001501,0.00000
 731,0.00000588,0.00001270,0.00000087,-0.00000469,0.00000796,-0.0000068
 0,0.00000371,0.00000864,-0.00000559,0.00000221,0.00000862,-0.00000778,
 0.00000224,0.00000566,-0.00000518,-0.00000183,0.00000278,-0.00000169,-
 0.00000003,-0.00000389,0.00000091,-0.00000043,-0.00000066,0.00000896,-
 0.00000065,-0.00000171,0.00000809,0.00001337,0.00000857,0.00000198,-0.
 00000199,0.00000996,0.00000515,0.00000035,0.00000563,0.00000719,-0.000
 00168,0.00000509,0.00000519,0.00000364,0.00000393,-0.00000446,-0.00000
 044,-0.00000924,-0.00000650,-0.00000163,-0.00001095,-0.00000469,-0.000
 00122,-0.00000784,-0.00000404,-0.00000131,-0.00000972,-0.00000303,-0.0
 0000127,-0.00001354,-0.00000212,-0.00000135,-0.00001289,-0.00000499,-0
 .00000193,-0.00001289,-0.00000208,-0.00000170,-0.00001313,-0.00000569,
 -0.00000113,-0.00000684,-0.00000695,0.00000013,-0.00000768,-0.00000493
 ,-0.00000041,-0.00000541,-0.00000500,-0.00000062,-0.00000549\\\@


 A MAN THINKING OR WORKING IS ALWAYS ALONE, 
 LET HIM BE WHERE HE WILL.

                                    -- THOREAU
 Job cpu time:       2 days 18 hours  6 minutes 26.0 seconds.
 File lengths (MBytes):  RWF=   7519 Int=      0 D2E=      0 Chk=     25 Scr=      1
 Normal termination of Gaussian 09 at Fri Feb  2 15:23:50 2018.
