 Entering Gaussian System, Link 0=g09
 Input=/home/vmi38398/chem/asymmetric_hydrogenation/lig_only/S_binap/S_binap-RR_dpen/R/ts1/Cf1/S_binap-RR_dpen.R.ts1.Cf1.2.com
 Output=/home/vmi38398/chem/asymmetric_hydrogenation/lig_only/S_binap/S_binap-RR_dpen/R/ts1/Cf1/S_binap-RR_dpen.R.ts1.Cf1.2.log
 Initial command:
 /usr/local/apps/eb/gaussian/09-Intel-SSE4_2/g09/l1.exe "/lscratch/vmi38398/606917.sapelo2/Gau-397143.inp" -scrdir="/lscratch/vmi38398/606917.sapelo2/"
 Default is to use a total of  14 processors:
                               14 via shared-memory
                                1 via Linda
 Entering Link 1 = /usr/local/apps/eb/gaussian/09-Intel-SSE4_2/g09/l1.exe PID=    397144.
  
 Copyright (c) 1988,1990,1992,1993,1995,1998,2003,2009,2013,
            Gaussian, Inc.  All Rights Reserved.
  
 This is part of the Gaussian(R) 09 program.  It is based on
 the Gaussian(R) 03 system (copyright 2003, Gaussian, Inc.),
 the Gaussian(R) 98 system (copyright 1998, Gaussian, Inc.),
 the Gaussian(R) 94 system (copyright 1995, Gaussian, Inc.),
 the Gaussian 92(TM) system (copyright 1992, Gaussian, Inc.),
 the Gaussian 90(TM) system (copyright 1990, Gaussian, Inc.),
 the Gaussian 88(TM) system (copyright 1988, Gaussian, Inc.),
 the Gaussian 86(TM) system (copyright 1986, Carnegie Mellon
 University), and the Gaussian 82(TM) system (copyright 1983,
 Carnegie Mellon University). Gaussian is a federally registered
 trademark of Gaussian, Inc.
  
 This software contains proprietary and confidential information,
 including trade secrets, belonging to Gaussian, Inc.
  
 This software is provided under written license and may be
 used, copied, transmitted, or stored only in accord with that
 written license.
  
 The following legend is applicable only to US Government
 contracts under FAR:
  
                    RESTRICTED RIGHTS LEGEND
  
 Use, reproduction and disclosure by the US Government is
 subject to restrictions as set forth in subparagraphs (a)
 and (c) of the Commercial Computer Software - Restricted
 Rights clause in FAR 52.227-19.
  
 Gaussian, Inc.
 340 Quinnipiac St., Bldg. 40, Wallingford CT 06492
  
  
 ---------------------------------------------------------------
 Warning -- This program may not be used in any manner that
 competes with the business of Gaussian, Inc. or will provide
 assistance to any competitor of Gaussian, Inc.  The licensee
 of this program is prohibited from giving any competitor of
 Gaussian, Inc. access to this program.  By using this program,
 the user acknowledges that Gaussian, Inc. is engaged in the
 business of creating and licensing software in the field of
 computational chemistry and represents and warrants to the
 licensee that it is not a competitor of Gaussian, Inc. and that
 it will not use this program in any manner prohibited above.
 ---------------------------------------------------------------
  

 Cite this work as:
 Gaussian 09, Revision D.01,
 M. J. Frisch, G. W. Trucks, H. B. Schlegel, G. E. Scuseria, 
 M. A. Robb, J. R. Cheeseman, G. Scalmani, V. Barone, B. Mennucci, 
 G. A. Petersson, H. Nakatsuji, M. Caricato, X. Li, H. P. Hratchian, 
 A. F. Izmaylov, J. Bloino, G. Zheng, J. L. Sonnenberg, M. Hada, 
 M. Ehara, K. Toyota, R. Fukuda, J. Hasegawa, M. Ishida, T. Nakajima, 
 Y. Honda, O. Kitao, H. Nakai, T. Vreven, J. A. Montgomery, Jr., 
 J. E. Peralta, F. Ogliaro, M. Bearpark, J. J. Heyd, E. Brothers, 
 K. N. Kudin, V. N. Staroverov, T. Keith, R. Kobayashi, J. Normand, 
 K. Raghavachari, A. Rendell, J. C. Burant, S. S. Iyengar, J. Tomasi, 
 M. Cossi, N. Rega, J. M. Millam, M. Klene, J. E. Knox, J. B. Cross, 
 V. Bakken, C. Adamo, J. Jaramillo, R. Gomperts, R. E. Stratmann, 
 O. Yazyev, A. J. Austin, R. Cammi, C. Pomelli, J. W. Ochterski, 
 R. L. Martin, K. Morokuma, V. G. Zakrzewski, G. A. Voth, 
 P. Salvador, J. J. Dannenberg, S. Dapprich, A. D. Daniels, 
 O. Farkas, J. B. Foresman, J. V. Ortiz, J. Cioslowski, 
 and D. J. Fox, Gaussian, Inc., Wallingford CT, 2013.
 
 ******************************************
 Gaussian 09:  ES64L-G09RevD.01 24-Apr-2013
                 3-Dec-2018 
 ******************************************
 ----------------------------------------------------------------------
 #wb97xd/gen opt=(modredundant,maxcyc=1000) scrf=(smd,solvent=2-Propano
 l)
 ----------------------------------------------------------------------
 1/6=1000,14=-1,18=120,19=15,26=3,38=1/1,3;
 2/9=110,12=2,17=6,18=5,40=1/2;
 3/5=7,11=2,16=1,25=1,30=1,70=32201,71=1,72=73,74=-58/1,2,3;
 4//1;
 5/5=2,38=5,53=73/2;
 6/7=2,8=2,9=2,10=2,28=1/1;
 7//1,2,3,16;
 1/6=1000,14=-1,18=20,19=15,26=3/3(2);
 2/9=110/2;
 99//99;
 2/9=110/2;
 3/5=7,6=1,11=2,16=1,25=1,30=1,70=32205,71=1,72=73,74=-58,82=7/1,2,3;
 4/5=5,16=3,69=1/1;
 5/5=2,38=5,53=73/2;
 7//1,2,3,16;
 1/6=1000,14=-1,18=20,19=15,26=3/3(-5);
 2/9=110/2;
 6/7=2,8=2,9=2,10=2,19=2,28=1/1;
 99/9=1/99;
 --------------------------
 step 2 (attempt 2) cycle 1
 --------------------------
 Symbolic Z-matrix:
 Charge =  0 Multiplicity = 1
 H                     2.03529  -3.90877   3.25797 
 C                     1.50907  -3.22876   2.5737 
 C                     2.57751  -2.40406   1.86819 
 O                     3.26481  -1.60736   2.55554 
 H                     2.73308  -2.49701   0.85223 
 H                     0.91774  -3.83952   1.88964 
 H                     0.84217  -2.59626   3.16441 
 H                     1.43904  -1.40904   0.9523 
 H                     1.10089   1.39012  -0.84649 
 N                     2.79533   0.84967   1.17783 
 N                     2.8758   -0.53063  -1.17253 
 C                     3.90761   1.18148   0.26465 
 H                     2.56634   1.66793   1.73926 
 H                     3.08699   0.10728   1.82893 
 C                     4.15998  -0.06324  -0.60139 
 H                     2.94554  -1.53323  -1.34646 
 H                     2.73528  -0.1052   -2.08605 
 H                     4.78582   1.42287   0.82625 
 C                     3.8271    2.45854  -0.59884 
 C                     4.96148  -1.19455   0.07002 
 H                     4.83612   0.18232  -1.39344 
 C                     5.04066   3.16452  -0.76304 
 C                     2.6909    2.9537   -1.22095 
 C                     3.91838   4.82448  -2.12828 
 C                     2.71891   4.12504  -1.97486 
 C                     5.08259   4.334    -1.52173 
 H                     5.95505   2.80204  -0.29615 
 H                     6.02213   4.8694   -1.64022 
 H                     3.95288   5.7407   -2.71168 
 H                     1.80814   4.49249  -2.44078 
 H                     1.69502   2.29992  -1.09489 
 C                     5.45357  -1.13069   1.37741 
 C                     5.31862  -2.29317  -0.73858 
 C                     6.63136  -3.2318    1.06674 
 C                     6.13972  -3.30498  -0.24276 
 C                     6.28706  -2.14607   1.87079 
 H                     5.17175  -0.31938   2.04931 
 H                     6.64549  -2.08748   2.89765 
 H                     7.27294  -4.0202    1.45364 
 H                     6.40204  -4.15075  -0.87455 
 H                     4.96343  -2.35975  -1.7647 
 Ru                    1.14055   0.00941   0.06012 
 P                    -0.49089   0.86527   1.38269 
 P                    -0.36691  -0.87092  -1.3932 
 C                     0.11503   1.30636   3.07971 
 C                    -1.43597   2.39037   0.93083 
 C                    -1.88967  -0.32033   1.66045 
 C                     0.47356  -1.0012   -3.03779 
 C                    -1.13938  -2.53971  -1.23078 
 C                    -1.91976   0.11793  -1.64643 
 C                    -2.78715  -0.60203   0.63923 
 C                    -1.92725  -1.08236   2.85857 
 C                    -2.86282   0.20464  -0.62814 
 C                    -2.11202   0.86492  -2.83786 
 C                    -3.72096  -1.68378   0.79367 
 C                    -2.82503  -2.099     3.03071 
 H                    -1.23363  -0.85201   3.65999 
 C                    -3.99918   1.07198  -0.78203 
 C                    -3.17428   1.7127   -2.99038 
 H                    -1.41026   0.76238  -3.65619 
 C                    -3.74056  -2.43238   2.00239 
 C                    -4.62116  -2.06464  -0.24013 
 H                    -2.84271  -2.66436   3.95917 
 C                    -4.13755   1.85099  -1.96301 
 C                    -5.00089   1.20448   0.22094 
 H                    -3.29452   2.28037  -3.90968 
 C                    -4.65302  -3.50966   2.15107 
 C                    -5.48748  -3.11584  -0.07395 
 H                    -4.60897  -1.5284   -1.18272 
 C                    -5.23957   2.73674  -2.10159 
 C                    -6.06513   2.05369   0.05509 
 H                    -4.91596   0.63635   1.14013 
 C                    -5.51086  -3.84682   1.13613 
 H                    -4.65074  -4.06684   3.08468 
 H                    -6.15688  -3.39441  -0.88292 
 C                    -6.1869    2.83656  -1.11619 
 H                    -5.31817   3.32905  -3.00982 
 H                    -6.81414   2.1371    0.83744 
 H                    -6.20304  -4.67559   1.25406 
 H                    -7.02923   3.51287  -1.22985 
 C                    -0.13185   2.52373   3.72428 
 C                     0.96963   0.38997   3.70733 
 C                     0.43752   2.80005   4.96727 
 H                    -0.76218   3.27623   3.2643 
 C                     1.53052   0.65799   4.95129 
 H                     1.22301  -0.53394   3.20054 
 C                     1.26325   1.86792   5.58897 
 H                     0.23343   3.75339   5.44681 
 H                     2.18809  -0.0746    5.41109 
 H                     1.70489   2.08699   6.55704 
 C                    -2.56157   2.75719   1.68033 
 C                    -1.06835   3.18706  -0.15474 
 C                    -3.29848   3.89035   1.35345 
 H                    -2.87608   2.14529   2.52225 
 C                    -1.81726   4.3117   -0.49771 
 H                    -0.20555   2.90732  -0.75096 
 C                    -2.93418   4.66589   0.25415 
 H                    -4.17105   4.1547    1.9438 
 H                    -1.52814   4.90748  -1.35919 
 H                    -3.52035   5.54001  -0.0152 
 C                     0.89074  -2.24247  -3.53119 
 C                     0.95999   0.1559   -3.66854 
 C                     1.74722  -2.32718  -4.62915 
 H                     0.56496  -3.1602   -3.05318 
 C                     1.80005   0.07219  -4.77484 
 H                     0.71474   1.13547  -3.26887 
 C                     2.1999   -1.1728   -5.25907 
 H                     2.06219  -3.30373  -4.98633 
 H                     2.15831   0.98315  -5.24598 
 H                     2.86781  -1.23927  -6.11301 
 C                    -1.92751  -3.08074  -2.25503 
 C                    -1.0102   -3.24459  -0.03735 
 C                    -2.54377  -4.31677  -2.09226 
 H                    -2.06039  -2.53527  -3.18651 
 C                    -1.63412  -4.4789    0.1351 
 H                    -0.43925  -2.80023   0.77102 
 C                    -2.3987   -5.01882  -0.89444 
 H                    -3.14966  -4.72814  -2.89475 
 H                    -1.53428  -5.00664   1.0796 
 H                    -2.89144  -5.97812  -0.76333 
 
 Add virtual bond connecting atoms H8         and C3         Dist= 3.34D+00.
 Add virtual bond connecting atoms H8         and H5         Dist= 3.20D+00.
 The following ModRedundant input section has been read:
 B       8      42 F                                                           
 B       3       8 F                                                           
 B       3       4 F                                                           
 B      30      95 F                                                           
 B      25      92 F                                                           
 B      23      92 F                                                           
 B      23      42 F                                                           
 B      23      96 F                                                           
 B      24      99 F                                                           
 B       9      23 F                                                           
 B      25      95 F                                                           
 B      25      99 F                                                           
 B      31      42 F                                                           
 

 GradGradGradGradGradGradGradGradGradGradGradGradGradGradGradGradGradGrad
 Berny optimization.
 Initialization pass.
                           ----------------------------
                           !    Initial Parameters    !
                           ! (Angstroms and Degrees)  !
 --------------------------                            --------------------------
 ! Name  Definition              Value          Derivative Info.                !
 --------------------------------------------------------------------------------
 ! R1    R(1,2)                  1.0989         estimate D2E/DX2                !
 ! R2    R(2,3)                  1.523          estimate D2E/DX2                !
 ! R3    R(2,6)                  1.0912         estimate D2E/DX2                !
 ! R4    R(2,7)                  1.0926         estimate D2E/DX2                !
 ! R5    R(3,4)                  1.2568         Frozen                          !
 ! R6    R(3,5)                  1.032          estimate D2E/DX2                !
 ! R7    R(3,8)                  1.7678         Frozen                          !
 ! R8    R(5,8)                  1.6936         estimate D2E/DX2                !
 ! R9    R(8,42)                 1.7021         Frozen                          !
 ! R10   R(9,23)                 2.2612         Frozen                          !
 ! R11   R(9,42)                 1.6522         estimate D2E/DX2                !
 ! R12   R(10,12)                1.4769         estimate D2E/DX2                !
 ! R13   R(10,13)                1.0184         estimate D2E/DX2                !
 ! R14   R(10,14)                1.0296         estimate D2E/DX2                !
 ! R15   R(10,42)                2.1665         estimate D2E/DX2                !
 ! R16   R(11,15)                1.4811         estimate D2E/DX2                !
 ! R17   R(11,16)                1.02           estimate D2E/DX2                !
 ! R18   R(11,17)                1.0175         estimate D2E/DX2                !
 ! R19   R(11,42)                2.1959         estimate D2E/DX2                !
 ! R20   R(12,15)                1.5372         estimate D2E/DX2                !
 ! R21   R(12,18)                1.07           estimate D2E/DX2                !
 ! R22   R(12,19)                1.5437         estimate D2E/DX2                !
 ! R23   R(15,20)                1.5405         estimate D2E/DX2                !
 ! R24   R(15,21)                1.07           estimate D2E/DX2                !
 ! R25   R(19,22)                1.4135         estimate D2E/DX2                !
 ! R26   R(19,23)                1.3868         estimate D2E/DX2                !
 ! R27   R(20,32)                1.3984         estimate D2E/DX2                !
 ! R28   R(20,33)                1.4101         estimate D2E/DX2                !
 ! R29   R(22,26)                1.3947         estimate D2E/DX2                !
 ! R30   R(22,27)                1.0888         estimate D2E/DX2                !
 ! R31   R(23,25)                1.3933         estimate D2E/DX2                !
 ! R32   R(23,31)                1.198          estimate D2E/DX2                !
 ! R33   R(23,42)                3.5656         Frozen                          !
 ! R34   R(23,92)                3.9145         Frozen                          !
 ! R35   R(23,96)                2.9347         Frozen                          !
 ! R36   R(24,25)                1.397          estimate D2E/DX2                !
 ! R37   R(24,26)                1.4014         estimate D2E/DX2                !
 ! R38   R(24,29)                1.0867         estimate D2E/DX2                !
 ! R39   R(24,99)                5.5012         Frozen                          !
 ! R40   R(25,30)                1.087          estimate D2E/DX2                !
 ! R41   R(25,92)                4.3053         Frozen                          !
 ! R42   R(25,95)                4.7743         Frozen                          !
 ! R43   R(25,99)                4.3622         Frozen                          !
 ! R44   R(26,28)                1.0879         estimate D2E/DX2                !
 ! R45   R(30,95)                4.1173         Frozen                          !
 ! R46   R(31,42)                2.6245         Frozen                          !
 ! R47   R(32,36)                1.4033         estimate D2E/DX2                !
 ! R48   R(32,37)                1.0905         estimate D2E/DX2                !
 ! R49   R(33,35)                1.3942         estimate D2E/DX2                !
 ! R50   R(33,41)                1.0879         estimate D2E/DX2                !
 ! R51   R(34,35)                1.4007         estimate D2E/DX2                !
 ! R52   R(34,36)                1.3942         estimate D2E/DX2                !
 ! R53   R(34,39)                1.0876         estimate D2E/DX2                !
 ! R54   R(35,40)                1.0878         estimate D2E/DX2                !
 ! R55   R(36,38)                1.0892         estimate D2E/DX2                !
 ! R56   R(42,43)                2.2679         estimate D2E/DX2                !
 ! R57   R(42,44)                2.2715         estimate D2E/DX2                !
 ! R58   R(43,45)                1.8552         estimate D2E/DX2                !
 ! R59   R(43,46)                1.8502         estimate D2E/DX2                !
 ! R60   R(43,47)                1.8546         estimate D2E/DX2                !
 ! R61   R(44,48)                1.8515         estimate D2E/DX2                !
 ! R62   R(44,49)                1.8461         estimate D2E/DX2                !
 ! R63   R(44,50)                1.8583         estimate D2E/DX2                !
 ! R64   R(45,81)                1.3994         estimate D2E/DX2                !
 ! R65   R(45,82)                1.4014         estimate D2E/DX2                !
 ! R66   R(46,91)                1.4012         estimate D2E/DX2                !
 ! R67   R(46,92)                1.3958         estimate D2E/DX2                !
 ! R68   R(47,51)                1.3884         estimate D2E/DX2                !
 ! R69   R(47,52)                1.4204         estimate D2E/DX2                !
 ! R70   R(48,101)               1.3994         estimate D2E/DX2                !
 ! R71   R(48,102)               1.4048         estimate D2E/DX2                !
 ! R72   R(49,111)               1.401          estimate D2E/DX2                !
 ! R73   R(49,112)               1.3921         estimate D2E/DX2                !
 ! R74   R(50,53)                1.3906         estimate D2E/DX2                !
 ! R75   R(50,54)                1.4193         estimate D2E/DX2                !
 ! R76   R(51,53)                1.5042         estimate D2E/DX2                !
 ! R77   R(51,55)                1.4374         estimate D2E/DX2                !
 ! R78   R(52,56)                1.3672         estimate D2E/DX2                !
 ! R79   R(52,57)                1.0846         estimate D2E/DX2                !
 ! R80   R(53,58)                1.4378         estimate D2E/DX2                !
 ! R81   R(54,59)                1.3676         estimate D2E/DX2                !
 ! R82   R(54,60)                1.0829         estimate D2E/DX2                !
 ! R83   R(55,61)                1.4219         estimate D2E/DX2                !
 ! R84   R(55,62)                1.4227         estimate D2E/DX2                !
 ! R85   R(56,61)                1.4166         estimate D2E/DX2                !
 ! R86   R(56,63)                1.0872         estimate D2E/DX2                !
 ! R87   R(58,64)                1.4215         estimate D2E/DX2                !
 ! R88   R(58,65)                1.4237         estimate D2E/DX2                !
 ! R89   R(59,64)                1.4151         estimate D2E/DX2                !
 ! R90   R(59,66)                1.0871         estimate D2E/DX2                !
 ! R91   R(61,67)                1.4196         estimate D2E/DX2                !
 ! R92   R(62,68)                1.3723         estimate D2E/DX2                !
 ! R93   R(62,69)                1.0845         estimate D2E/DX2                !
 ! R94   R(64,70)                1.4206         estimate D2E/DX2                !
 ! R95   R(65,71)                1.3716         estimate D2E/DX2                !
 ! R96   R(65,72)                1.0839         estimate D2E/DX2                !
 ! R97   R(67,73)                1.371          estimate D2E/DX2                !
 ! R98   R(67,74)                1.0872         estimate D2E/DX2                !
 ! R99   R(68,73)                1.4139         estimate D2E/DX2                !
 ! R100  R(68,75)                1.0863         estimate D2E/DX2                !
 ! R101  R(70,76)                1.3705         estimate D2E/DX2                !
 ! R102  R(70,77)                1.0872         estimate D2E/DX2                !
 ! R103  R(71,76)                1.4141         estimate D2E/DX2                !
 ! R104  R(71,78)                1.0863         estimate D2E/DX2                !
 ! R105  R(73,79)                1.0862         estimate D2E/DX2                !
 ! R106  R(76,80)                1.0862         estimate D2E/DX2                !
 ! R107  R(81,83)                1.3948         estimate D2E/DX2                !
 ! R108  R(81,84)                1.084          estimate D2E/DX2                !
 ! R109  R(82,85)                1.3906         estimate D2E/DX2                !
 ! R110  R(82,86)                1.0838         estimate D2E/DX2                !
 ! R111  R(83,87)                1.3918         estimate D2E/DX2                !
 ! R112  R(83,88)                1.0865         estimate D2E/DX2                !
 ! R113  R(85,87)                1.3936         estimate D2E/DX2                !
 ! R114  R(85,89)                1.0865         estimate D2E/DX2                !
 ! R115  R(87,90)                1.0864         estimate D2E/DX2                !
 ! R116  R(91,93)                1.3907         estimate D2E/DX2                !
 ! R117  R(91,94)                1.0873         estimate D2E/DX2                !
 ! R118  R(92,95)                1.394          estimate D2E/DX2                !
 ! R119  R(92,96)                1.0854         estimate D2E/DX2                !
 ! R120  R(93,97)                1.3938         estimate D2E/DX2                !
 ! R121  R(93,98)                1.0862         estimate D2E/DX2                !
 ! R122  R(95,97)                1.3922         estimate D2E/DX2                !
 ! R123  R(95,99)                1.0866         estimate D2E/DX2                !
 ! R124  R(97,100)               1.0864         estimate D2E/DX2                !
 ! R125  R(101,103)              1.3951         estimate D2E/DX2                !
 ! R126  R(101,104)              1.0848         estimate D2E/DX2                !
 ! R127  R(102,105)              1.3916         estimate D2E/DX2                !
 ! R128  R(102,106)              1.086          estimate D2E/DX2                !
 ! R129  R(103,107)              1.3908         estimate D2E/DX2                !
 ! R130  R(103,108)              1.0865         estimate D2E/DX2                !
 ! R131  R(105,107)              1.3944         estimate D2E/DX2                !
 ! R132  R(105,109)              1.0864         estimate D2E/DX2                !
 ! R133  R(107,110)              1.0862         estimate D2E/DX2                !
 ! R134  R(111,113)              1.3907         estimate D2E/DX2                !
 ! R135  R(111,114)              1.0876         estimate D2E/DX2                !
 ! R136  R(112,115)              1.3937         estimate D2E/DX2                !
 ! R137  R(112,116)              1.0849         estimate D2E/DX2                !
 ! R138  R(113,117)              1.396          estimate D2E/DX2                !
 ! R139  R(113,118)              1.0864         estimate D2E/DX2                !
 ! R140  R(115,117)              1.3914         estimate D2E/DX2                !
 ! R141  R(115,119)              1.0865         estimate D2E/DX2                !
 ! R142  R(117,120)              1.0864         estimate D2E/DX2                !
 ! A1    A(1,2,3)              106.7148         estimate D2E/DX2                !
 ! A2    A(1,2,6)              107.6688         estimate D2E/DX2                !
 ! A3    A(1,2,7)              108.2924         estimate D2E/DX2                !
 ! A4    A(3,2,6)              113.1333         estimate D2E/DX2                !
 ! A5    A(3,2,7)              111.4193         estimate D2E/DX2                !
 ! A6    A(6,2,7)              109.4016         estimate D2E/DX2                !
 ! A7    A(2,3,4)              118.2664         estimate D2E/DX2                !
 ! A8    A(2,3,5)              120.8664         estimate D2E/DX2                !
 ! A9    A(2,3,8)               95.3362         estimate D2E/DX2                !
 ! A10   A(4,3,5)              120.8672         estimate D2E/DX2                !
 ! A11   A(4,3,8)              106.1844         estimate D2E/DX2                !
 ! A12   A(3,8,42)             148.6038         estimate D2E/DX2                !
 ! A13   A(5,8,42)             129.6711         estimate D2E/DX2                !
 ! A14   A(12,10,13)           109.2496         estimate D2E/DX2                !
 ! A15   A(12,10,14)           109.8557         estimate D2E/DX2                !
 ! A16   A(12,10,42)           110.0831         estimate D2E/DX2                !
 ! A17   A(13,10,14)           107.1222         estimate D2E/DX2                !
 ! A18   A(13,10,42)           115.1056         estimate D2E/DX2                !
 ! A19   A(14,10,42)           105.2458         estimate D2E/DX2                !
 ! A20   A(15,11,16)           108.4613         estimate D2E/DX2                !
 ! A21   A(15,11,17)           109.5124         estimate D2E/DX2                !
 ! A22   A(15,11,42)           113.021          estimate D2E/DX2                !
 ! A23   A(16,11,17)           105.5069         estimate D2E/DX2                !
 ! A24   A(16,11,42)           113.0468         estimate D2E/DX2                !
 ! A25   A(17,11,42)           106.9789         estimate D2E/DX2                !
 ! A26   A(10,12,15)           106.8624         estimate D2E/DX2                !
 ! A27   A(10,12,18)           110.138          estimate D2E/DX2                !
 ! A28   A(10,12,19)           119.5019         estimate D2E/DX2                !
 ! A29   A(15,12,18)           110.0975         estimate D2E/DX2                !
 ! A30   A(15,12,19)           111.3026         estimate D2E/DX2                !
 ! A31   A(18,12,19)            98.6132         estimate D2E/DX2                !
 ! A32   A(11,15,12)           109.2943         estimate D2E/DX2                !
 ! A33   A(11,15,20)           112.7944         estimate D2E/DX2                !
 ! A34   A(11,15,21)           109.5644         estimate D2E/DX2                !
 ! A35   A(12,15,20)           115.7553         estimate D2E/DX2                !
 ! A36   A(12,15,21)           109.5705         estimate D2E/DX2                !
 ! A37   A(20,15,21)            99.3458         estimate D2E/DX2                !
 ! A38   A(12,19,22)           115.6819         estimate D2E/DX2                !
 ! A39   A(12,19,23)           126.0897         estimate D2E/DX2                !
 ! A40   A(22,19,23)           118.2265         estimate D2E/DX2                !
 ! A41   A(15,20,32)           123.8509         estimate D2E/DX2                !
 ! A42   A(15,20,33)           117.0022         estimate D2E/DX2                !
 ! A43   A(32,20,33)           118.8536         estimate D2E/DX2                !
 ! A44   A(19,22,26)           120.5178         estimate D2E/DX2                !
 ! A45   A(19,22,27)           120.3261         estimate D2E/DX2                !
 ! A46   A(26,22,27)           119.156          estimate D2E/DX2                !
 ! A47   A(19,23,25)           121.7665         estimate D2E/DX2                !
 ! A48   A(19,23,31)           116.0422         estimate D2E/DX2                !
 ! A49   A(25,23,31)           122.1723         estimate D2E/DX2                !
 ! A50   A(25,24,26)           119.3764         estimate D2E/DX2                !
 ! A51   A(25,24,29)           120.5529         estimate D2E/DX2                !
 ! A52   A(26,24,29)           120.0708         estimate D2E/DX2                !
 ! A53   A(23,25,24)           119.8425         estimate D2E/DX2                !
 ! A54   A(23,25,30)           119.9528         estimate D2E/DX2                !
 ! A55   A(24,25,30)           120.2046         estimate D2E/DX2                !
 ! A56   A(22,26,24)           120.263          estimate D2E/DX2                !
 ! A57   A(22,26,28)           119.8624         estimate D2E/DX2                !
 ! A58   A(24,26,28)           119.8742         estimate D2E/DX2                !
 ! A59   A(20,32,36)           120.3107         estimate D2E/DX2                !
 ! A60   A(20,32,37)           121.2717         estimate D2E/DX2                !
 ! A61   A(36,32,37)           118.3738         estimate D2E/DX2                !
 ! A62   A(20,33,35)           120.7079         estimate D2E/DX2                !
 ! A63   A(20,33,41)           120.3889         estimate D2E/DX2                !
 ! A64   A(35,33,41)           118.9011         estimate D2E/DX2                !
 ! A65   A(35,34,36)           119.5495         estimate D2E/DX2                !
 ! A66   A(35,34,39)           120.1164         estimate D2E/DX2                !
 ! A67   A(36,34,39)           120.3333         estimate D2E/DX2                !
 ! A68   A(33,35,34)           120.0849         estimate D2E/DX2                !
 ! A69   A(33,35,40)           119.9827         estimate D2E/DX2                !
 ! A70   A(34,35,40)           119.932          estimate D2E/DX2                !
 ! A71   A(32,36,34)           120.4906         estimate D2E/DX2                !
 ! A72   A(32,36,38)           119.2103         estimate D2E/DX2                !
 ! A73   A(34,36,38)           120.2862         estimate D2E/DX2                !
 ! A74   A(8,42,10)             85.3448         estimate D2E/DX2                !
 ! A75   A(8,42,11)             87.1749         estimate D2E/DX2                !
 ! A76   A(8,42,43)             97.7569         estimate D2E/DX2                !
 ! A77   A(8,42,44)             97.3991         estimate D2E/DX2                !
 ! A78   A(9,42,10)             88.6999         estimate D2E/DX2                !
 ! A79   A(9,42,11)             85.2082         estimate D2E/DX2                !
 ! A80   A(9,42,43)             89.2759         estimate D2E/DX2                !
 ! A81   A(9,42,44)             87.5278         estimate D2E/DX2                !
 ! A82   A(10,42,11)            77.3737         estimate D2E/DX2                !
 ! A83   A(10,42,43)            95.8674         estimate D2E/DX2                !
 ! A84   A(11,42,44)            94.012          estimate D2E/DX2                !
 ! A85   A(43,42,44)            92.4056         estimate D2E/DX2                !
 ! A86   A(42,43,45)           112.8447         estimate D2E/DX2                !
 ! A87   A(42,43,46)           122.4184         estimate D2E/DX2                !
 ! A88   A(42,43,47)           112.8711         estimate D2E/DX2                !
 ! A89   A(45,43,46)           101.2011         estimate D2E/DX2                !
 ! A90   A(45,43,47)           105.1497         estimate D2E/DX2                !
 ! A91   A(46,43,47)           100.2694         estimate D2E/DX2                !
 ! A92   A(42,44,48)           107.1175         estimate D2E/DX2                !
 ! A93   A(42,44,49)           124.8723         estimate D2E/DX2                !
 ! A94   A(42,44,50)           115.8186         estimate D2E/DX2                !
 ! A95   A(48,44,49)           101.7996         estimate D2E/DX2                !
 ! A96   A(48,44,50)           107.2009         estimate D2E/DX2                !
 ! A97   A(49,44,50)            98.2419         estimate D2E/DX2                !
 ! A98   A(43,45,81)           124.7883         estimate D2E/DX2                !
 ! A99   A(43,45,82)           116.9603         estimate D2E/DX2                !
 ! A100  A(81,45,82)           118.0424         estimate D2E/DX2                !
 ! A101  A(43,46,91)           119.7024         estimate D2E/DX2                !
 ! A102  A(43,46,92)           121.7279         estimate D2E/DX2                !
 ! A103  A(91,46,92)           118.5652         estimate D2E/DX2                !
 ! A104  A(43,47,51)           120.4701         estimate D2E/DX2                !
 ! A105  A(43,47,52)           119.2915         estimate D2E/DX2                !
 ! A106  A(51,47,52)           119.6345         estimate D2E/DX2                !
 ! A107  A(44,48,101)          120.7257         estimate D2E/DX2                !
 ! A108  A(44,48,102)          119.8718         estimate D2E/DX2                !
 ! A109  A(101,48,102)         117.9754         estimate D2E/DX2                !
 ! A110  A(44,49,111)          121.3417         estimate D2E/DX2                !
 ! A111  A(44,49,112)          119.6256         estimate D2E/DX2                !
 ! A112  A(111,49,112)         118.9087         estimate D2E/DX2                !
 ! A113  A(44,50,53)           120.0056         estimate D2E/DX2                !
 ! A114  A(44,50,54)           120.5069         estimate D2E/DX2                !
 ! A115  A(53,50,54)           119.3413         estimate D2E/DX2                !
 ! A116  A(47,51,53)           122.9171         estimate D2E/DX2                !
 ! A117  A(47,51,55)           119.5778         estimate D2E/DX2                !
 ! A118  A(53,51,55)           117.4804         estimate D2E/DX2                !
 ! A119  A(47,52,56)           121.5001         estimate D2E/DX2                !
 ! A120  A(47,52,57)           119.4984         estimate D2E/DX2                !
 ! A121  A(56,52,57)           119.0005         estimate D2E/DX2                !
 ! A122  A(50,53,51)           123.3268         estimate D2E/DX2                !
 ! A123  A(50,53,58)           119.6839         estimate D2E/DX2                !
 ! A124  A(51,53,58)           116.9648         estimate D2E/DX2                !
 ! A125  A(50,54,59)           121.6737         estimate D2E/DX2                !
 ! A126  A(50,54,60)           119.7841         estimate D2E/DX2                !
 ! A127  A(59,54,60)           118.5403         estimate D2E/DX2                !
 ! A128  A(51,55,61)           119.7701         estimate D2E/DX2                !
 ! A129  A(51,55,62)           122.3066         estimate D2E/DX2                !
 ! A130  A(61,55,62)           117.9066         estimate D2E/DX2                !
 ! A131  A(52,56,61)           120.5298         estimate D2E/DX2                !
 ! A132  A(52,56,63)           120.3241         estimate D2E/DX2                !
 ! A133  A(61,56,63)           119.1458         estimate D2E/DX2                !
 ! A134  A(53,58,64)           119.7649         estimate D2E/DX2                !
 ! A135  A(53,58,65)           122.4673         estimate D2E/DX2                !
 ! A136  A(64,58,65)           117.7609         estimate D2E/DX2                !
 ! A137  A(54,59,64)           120.5528         estimate D2E/DX2                !
 ! A138  A(54,59,66)           120.2588         estimate D2E/DX2                !
 ! A139  A(64,59,66)           119.1844         estimate D2E/DX2                !
 ! A140  A(55,61,56)           118.9645         estimate D2E/DX2                !
 ! A141  A(55,61,67)           119.8296         estimate D2E/DX2                !
 ! A142  A(56,61,67)           121.196          estimate D2E/DX2                !
 ! A143  A(55,62,68)           121.0988         estimate D2E/DX2                !
 ! A144  A(55,62,69)           119.4763         estimate D2E/DX2                !
 ! A145  A(68,62,69)           119.4132         estimate D2E/DX2                !
 ! A146  A(58,64,59)           118.9039         estimate D2E/DX2                !
 ! A147  A(58,64,70)           119.8829         estimate D2E/DX2                !
 ! A148  A(59,64,70)           121.2084         estimate D2E/DX2                !
 ! A149  A(58,65,71)           121.2231         estimate D2E/DX2                !
 ! A150  A(58,65,72)           119.5712         estimate D2E/DX2                !
 ! A151  A(71,65,72)           119.1992         estimate D2E/DX2                !
 ! A152  A(61,67,73)           120.7483         estimate D2E/DX2                !
 ! A153  A(61,67,74)           118.5216         estimate D2E/DX2                !
 ! A154  A(73,67,74)           120.7281         estimate D2E/DX2                !
 ! A155  A(62,68,73)           120.6706         estimate D2E/DX2                !
 ! A156  A(62,68,75)           119.6874         estimate D2E/DX2                !
 ! A157  A(73,68,75)           119.6403         estimate D2E/DX2                !
 ! A158  A(64,70,76)           120.7613         estimate D2E/DX2                !
 ! A159  A(64,70,77)           118.5071         estimate D2E/DX2                !
 ! A160  A(76,70,77)           120.7304         estimate D2E/DX2                !
 ! A161  A(65,71,76)           120.6463         estimate D2E/DX2                !
 ! A162  A(65,71,78)           119.7            estimate D2E/DX2                !
 ! A163  A(76,71,78)           119.6473         estimate D2E/DX2                !
 ! A164  A(67,73,68)           119.7406         estimate D2E/DX2                !
 ! A165  A(67,73,79)           120.3966         estimate D2E/DX2                !
 ! A166  A(68,73,79)           119.8616         estimate D2E/DX2                !
 ! A167  A(70,76,71)           119.7152         estimate D2E/DX2                !
 ! A168  A(70,76,80)           120.4066         estimate D2E/DX2                !
 ! A169  A(71,76,80)           119.8781         estimate D2E/DX2                !
 ! A170  A(45,81,83)           120.7152         estimate D2E/DX2                !
 ! A171  A(45,81,84)           120.73           estimate D2E/DX2                !
 ! A172  A(83,81,84)           118.5523         estimate D2E/DX2                !
 ! A173  A(45,82,85)           121.3685         estimate D2E/DX2                !
 ! A174  A(45,82,86)           119.3784         estimate D2E/DX2                !
 ! A175  A(85,82,86)           119.2274         estimate D2E/DX2                !
 ! A176  A(81,83,87)           120.5006         estimate D2E/DX2                !
 ! A177  A(81,83,88)           119.3712         estimate D2E/DX2                !
 ! A178  A(87,83,88)           120.1279         estimate D2E/DX2                !
 ! A179  A(82,85,87)           119.9543         estimate D2E/DX2                !
 ! A180  A(82,85,89)           119.5191         estimate D2E/DX2                !
 ! A181  A(87,85,89)           120.5194         estimate D2E/DX2                !
 ! A182  A(83,87,85)           119.3966         estimate D2E/DX2                !
 ! A183  A(83,87,90)           120.2757         estimate D2E/DX2                !
 ! A184  A(85,87,90)           120.3236         estimate D2E/DX2                !
 ! A185  A(46,91,93)           120.8821         estimate D2E/DX2                !
 ! A186  A(46,91,94)           119.9499         estimate D2E/DX2                !
 ! A187  A(93,91,94)           119.1634         estimate D2E/DX2                !
 ! A188  A(46,92,95)           120.6852         estimate D2E/DX2                !
 ! A189  A(46,92,96)           119.3042         estimate D2E/DX2                !
 ! A190  A(95,92,96)           119.9885         estimate D2E/DX2                !
 ! A191  A(91,93,97)           120.0186         estimate D2E/DX2                !
 ! A192  A(91,93,98)           119.7519         estimate D2E/DX2                !
 ! A193  A(97,93,98)           120.2143         estimate D2E/DX2                !
 ! A194  A(92,95,97)           120.224          estimate D2E/DX2                !
 ! A195  A(92,95,99)           119.6336         estimate D2E/DX2                !
 ! A196  A(97,95,99)           120.1413         estimate D2E/DX2                !
 ! A197  A(93,97,95)           119.6089         estimate D2E/DX2                !
 ! A198  A(93,97,100)          120.1471         estimate D2E/DX2                !
 ! A199  A(95,97,100)          120.2438         estimate D2E/DX2                !
 ! A200  A(48,101,103)         120.9564         estimate D2E/DX2                !
 ! A201  A(48,101,104)         120.3651         estimate D2E/DX2                !
 ! A202  A(103,101,104)        118.6706         estimate D2E/DX2                !
 ! A203  A(48,102,105)         121.0932         estimate D2E/DX2                !
 ! A204  A(48,102,106)         119.9687         estimate D2E/DX2                !
 ! A205  A(105,102,106)        118.8905         estimate D2E/DX2                !
 ! A206  A(101,103,107)        120.3895         estimate D2E/DX2                !
 ! A207  A(101,103,108)        119.4259         estimate D2E/DX2                !
 ! A208  A(107,103,108)        120.184          estimate D2E/DX2                !
 ! A209  A(102,105,107)        120.1908         estimate D2E/DX2                !
 ! A210  A(102,105,109)        119.5646         estimate D2E/DX2                !
 ! A211  A(107,105,109)        120.233          estimate D2E/DX2                !
 ! A212  A(103,107,105)        119.3706         estimate D2E/DX2                !
 ! A213  A(103,107,110)        120.3605         estimate D2E/DX2                !
 ! A214  A(105,107,110)        120.2651         estimate D2E/DX2                !
 ! A215  A(49,111,113)         120.459          estimate D2E/DX2                !
 ! A216  A(49,111,114)         120.0781         estimate D2E/DX2                !
 ! A217  A(113,111,114)        119.4629         estimate D2E/DX2                !
 ! A218  A(49,112,115)         120.8612         estimate D2E/DX2                !
 ! A219  A(49,112,116)         118.702          estimate D2E/DX2                !
 ! A220  A(115,112,116)        120.4082         estimate D2E/DX2                !
 ! A221  A(111,113,117)        120.0902         estimate D2E/DX2                !
 ! A222  A(111,113,118)        119.8157         estimate D2E/DX2                !
 ! A223  A(117,113,118)        120.0887         estimate D2E/DX2                !
 ! A224  A(112,115,117)        119.8735         estimate D2E/DX2                !
 ! A225  A(112,115,119)        119.7726         estimate D2E/DX2                !
 ! A226  A(117,115,119)        120.3458         estimate D2E/DX2                !
 ! A227  A(113,117,115)        119.7919         estimate D2E/DX2                !
 ! A228  A(113,117,120)        120.0334         estimate D2E/DX2                !
 ! A229  A(115,117,120)        120.1707         estimate D2E/DX2                !
 ! A230  L(8,42,9,10,-1)       174.0447         estimate D2E/DX2                !
 ! A231  L(10,42,44,8,-1)      182.7439         estimate D2E/DX2                !
 ! A232  L(11,42,43,8,-1)      184.9318         estimate D2E/DX2                !
 ! A233  L(8,42,9,10,-2)       173.5214         estimate D2E/DX2                !
 ! A234  L(10,42,44,8,-2)      188.7659         estimate D2E/DX2                !
 ! A235  L(11,42,43,8,-2)      172.8542         estimate D2E/DX2                !
 ! D1    D(1,2,3,4)            -65.7578         estimate D2E/DX2                !
 ! D2    D(1,2,3,5)            114.2419         estimate D2E/DX2                !
 ! D3    D(1,2,3,8)           -177.3543         estimate D2E/DX2                !
 ! D4    D(6,2,3,4)            176.0191         estimate D2E/DX2                !
 ! D5    D(6,2,3,5)             -3.9812         estimate D2E/DX2                !
 ! D6    D(6,2,3,8)             64.4226         estimate D2E/DX2                !
 ! D7    D(7,2,3,4)             52.2653         estimate D2E/DX2                !
 ! D8    D(7,2,3,5)           -127.735          estimate D2E/DX2                !
 ! D9    D(7,2,3,8)            -59.3312         estimate D2E/DX2                !
 ! D10   D(2,3,8,42)           161.4257         estimate D2E/DX2                !
 ! D11   D(4,3,8,42)            39.9343         estimate D2E/DX2                !
 ! D12   D(3,8,42,10)          -24.7292         estimate D2E/DX2                !
 ! D13   D(3,8,42,11)           52.8222         estimate D2E/DX2                !
 ! D14   D(3,8,42,43)         -120.032          estimate D2E/DX2                !
 ! D15   D(3,8,42,44)          146.5049         estimate D2E/DX2                !
 ! D16   D(5,8,42,10)          -70.8106         estimate D2E/DX2                !
 ! D17   D(5,8,42,11)            6.7409         estimate D2E/DX2                !
 ! D18   D(5,8,42,43)         -166.1134         estimate D2E/DX2                !
 ! D19   D(5,8,42,44)          100.4235         estimate D2E/DX2                !
 ! D20   D(13,10,12,15)       -177.2171         estimate D2E/DX2                !
 ! D21   D(13,10,12,18)         63.2063         estimate D2E/DX2                !
 ! D22   D(13,10,12,19)        -49.7958         estimate D2E/DX2                !
 ! D23   D(14,10,12,15)         65.5465         estimate D2E/DX2                !
 ! D24   D(14,10,12,18)        -54.0301         estimate D2E/DX2                !
 ! D25   D(14,10,12,19)       -167.0322         estimate D2E/DX2                !
 ! D26   D(42,10,12,15)        -49.9029         estimate D2E/DX2                !
 ! D27   D(42,10,12,18)       -169.4795         estimate D2E/DX2                !
 ! D28   D(42,10,12,19)         77.5185         estimate D2E/DX2                !
 ! D29   D(12,10,42,8)         115.7804         estimate D2E/DX2                !
 ! D30   D(12,10,42,9)         -57.7411         estimate D2E/DX2                !
 ! D31   D(12,10,42,11)         27.6391         estimate D2E/DX2                !
 ! D32   D(12,10,42,43)       -146.8793         estimate D2E/DX2                !
 ! D33   D(13,10,42,8)        -120.2357         estimate D2E/DX2                !
 ! D34   D(13,10,42,9)          66.2429         estimate D2E/DX2                !
 ! D35   D(13,10,42,11)        151.6231         estimate D2E/DX2                !
 ! D36   D(13,10,42,43)        -22.8953         estimate D2E/DX2                !
 ! D37   D(14,10,42,8)          -2.5454         estimate D2E/DX2                !
 ! D38   D(14,10,42,9)        -176.0668         estimate D2E/DX2                !
 ! D39   D(14,10,42,11)        -90.6866         estimate D2E/DX2                !
 ! D40   D(14,10,42,43)         94.795          estimate D2E/DX2                !
 ! D41   D(12,10,44,48)          6.8889         estimate D2E/DX2                !
 ! D42   D(12,10,44,49)        122.3634         estimate D2E/DX2                !
 ! D43   D(12,10,44,50)       -110.6739         estimate D2E/DX2                !
 ! D44   D(13,10,44,48)        129.3034         estimate D2E/DX2                !
 ! D45   D(13,10,44,49)       -115.222          estimate D2E/DX2                !
 ! D46   D(13,10,44,50)         11.7406         estimate D2E/DX2                !
 ! D47   D(14,10,44,48)       -109.968          estimate D2E/DX2                !
 ! D48   D(14,10,44,49)          5.5065         estimate D2E/DX2                !
 ! D49   D(14,10,44,50)        132.4691         estimate D2E/DX2                !
 ! D50   D(16,11,15,12)       -153.1294         estimate D2E/DX2                !
 ! D51   D(16,11,15,20)        -22.8506         estimate D2E/DX2                !
 ! D52   D(16,11,15,21)         86.8005         estimate D2E/DX2                !
 ! D53   D(17,11,15,12)         92.2041         estimate D2E/DX2                !
 ! D54   D(17,11,15,20)       -137.517          estimate D2E/DX2                !
 ! D55   D(17,11,15,21)        -27.866          estimate D2E/DX2                !
 ! D56   D(42,11,15,12)        -26.952          estimate D2E/DX2                !
 ! D57   D(42,11,15,20)        103.3269         estimate D2E/DX2                !
 ! D58   D(42,11,15,21)       -147.0221         estimate D2E/DX2                !
 ! D59   D(15,11,42,8)         -85.5124         estimate D2E/DX2                !
 ! D60   D(15,11,42,9)          90.0853         estimate D2E/DX2                !
 ! D61   D(15,11,42,10)          0.3462         estimate D2E/DX2                !
 ! D62   D(15,11,42,44)        177.261          estimate D2E/DX2                !
 ! D63   D(16,11,42,8)          38.1763         estimate D2E/DX2                !
 ! D64   D(16,11,42,9)        -146.2261         estimate D2E/DX2                !
 ! D65   D(16,11,42,10)        124.0349         estimate D2E/DX2                !
 ! D66   D(16,11,42,44)        -59.0503         estimate D2E/DX2                !
 ! D67   D(17,11,42,8)         153.8778         estimate D2E/DX2                !
 ! D68   D(17,11,42,9)         -30.5245         estimate D2E/DX2                !
 ! D69   D(17,11,42,10)       -120.2636         estimate D2E/DX2                !
 ! D70   D(17,11,42,44)         56.6513         estimate D2E/DX2                !
 ! D71   D(15,11,43,45)        -19.8302         estimate D2E/DX2                !
 ! D72   D(15,11,43,46)         97.6053         estimate D2E/DX2                !
 ! D73   D(15,11,43,47)       -140.2869         estimate D2E/DX2                !
 ! D74   D(16,11,43,45)        104.3299         estimate D2E/DX2                !
 ! D75   D(16,11,43,46)       -138.2346         estimate D2E/DX2                !
 ! D76   D(16,11,43,47)        -16.1268         estimate D2E/DX2                !
 ! D77   D(17,11,43,45)       -138.066          estimate D2E/DX2                !
 ! D78   D(17,11,43,46)        -20.6305         estimate D2E/DX2                !
 ! D79   D(17,11,43,47)        101.4772         estimate D2E/DX2                !
 ! D80   D(10,12,15,11)         49.943          estimate D2E/DX2                !
 ! D81   D(10,12,15,20)        -78.7139         estimate D2E/DX2                !
 ! D82   D(10,12,15,21)        170.0094         estimate D2E/DX2                !
 ! D83   D(18,12,15,11)        169.5457         estimate D2E/DX2                !
 ! D84   D(18,12,15,20)         40.8888         estimate D2E/DX2                !
 ! D85   D(18,12,15,21)        -70.3879         estimate D2E/DX2                !
 ! D86   D(19,12,15,11)        -82.1632         estimate D2E/DX2                !
 ! D87   D(19,12,15,20)        149.18           estimate D2E/DX2                !
 ! D88   D(19,12,15,21)         37.9032         estimate D2E/DX2                !
 ! D89   D(10,12,19,22)        141.8943         estimate D2E/DX2                !
 ! D90   D(10,12,19,23)        -38.6174         estimate D2E/DX2                !
 ! D91   D(15,12,19,22)        -92.7702         estimate D2E/DX2                !
 ! D92   D(15,12,19,23)         86.7181         estimate D2E/DX2                !
 ! D93   D(18,12,19,22)         22.83           estimate D2E/DX2                !
 ! D94   D(18,12,19,23)       -157.6817         estimate D2E/DX2                !
 ! D95   D(11,15,20,32)       -127.3249         estimate D2E/DX2                !
 ! D96   D(11,15,20,33)         58.9814         estimate D2E/DX2                !
 ! D97   D(12,15,20,32)         -0.4053         estimate D2E/DX2                !
 ! D98   D(12,15,20,33)       -174.099          estimate D2E/DX2                !
 ! D99   D(21,15,20,32)        116.7444         estimate D2E/DX2                !
 ! D100  D(21,15,20,33)        -56.9493         estimate D2E/DX2                !
 ! D101  D(12,19,22,26)       -179.8728         estimate D2E/DX2                !
 ! D102  D(12,19,22,27)          0.0066         estimate D2E/DX2                !
 ! D103  D(23,19,22,26)          0.5965         estimate D2E/DX2                !
 ! D104  D(23,19,22,27)       -179.5241         estimate D2E/DX2                !
 ! D105  D(12,19,23,25)        179.5417         estimate D2E/DX2                !
 ! D106  D(12,19,23,31)         -2.0127         estimate D2E/DX2                !
 ! D107  D(22,19,23,25)         -0.9817         estimate D2E/DX2                !
 ! D108  D(22,19,23,31)        177.4639         estimate D2E/DX2                !
 ! D109  D(15,20,32,36)       -173.6395         estimate D2E/DX2                !
 ! D110  D(15,20,32,37)          8.8067         estimate D2E/DX2                !
 ! D111  D(33,20,32,36)         -0.0552         estimate D2E/DX2                !
 ! D112  D(33,20,32,37)       -177.6091         estimate D2E/DX2                !
 ! D113  D(15,20,33,35)        174.5051         estimate D2E/DX2                !
 ! D114  D(15,20,33,41)         -4.9621         estimate D2E/DX2                !
 ! D115  D(32,20,33,35)          0.4835         estimate D2E/DX2                !
 ! D116  D(32,20,33,41)       -178.9837         estimate D2E/DX2                !
 ! D117  D(19,22,26,24)          0.1495         estimate D2E/DX2                !
 ! D118  D(19,22,26,28)        179.9365         estimate D2E/DX2                !
 ! D119  D(27,22,26,24)       -179.7313         estimate D2E/DX2                !
 ! D120  D(27,22,26,28)          0.0556         estimate D2E/DX2                !
 ! D121  D(19,23,25,24)          0.6124         estimate D2E/DX2                !
 ! D122  D(19,23,25,30)       -179.3226         estimate D2E/DX2                !
 ! D123  D(31,23,25,24)       -177.7377         estimate D2E/DX2                !
 ! D124  D(31,23,25,30)          2.3273         estimate D2E/DX2                !
 ! D125  D(26,24,25,23)          0.1613         estimate D2E/DX2                !
 ! D126  D(26,24,25,30)       -179.9038         estimate D2E/DX2                !
 ! D127  D(29,24,25,23)       -179.842          estimate D2E/DX2                !
 ! D128  D(29,24,25,30)          0.0929         estimate D2E/DX2                !
 ! D129  D(25,24,26,22)         -0.5314         estimate D2E/DX2                !
 ! D130  D(25,24,26,28)        179.6816         estimate D2E/DX2                !
 ! D131  D(29,24,26,22)        179.4718         estimate D2E/DX2                !
 ! D132  D(29,24,26,28)         -0.3151         estimate D2E/DX2                !
 ! D133  D(20,32,36,34)         -0.1985         estimate D2E/DX2                !
 ! D134  D(20,32,36,38)       -178.8959         estimate D2E/DX2                !
 ! D135  D(37,32,36,34)        177.4253         estimate D2E/DX2                !
 ! D136  D(37,32,36,38)         -1.2721         estimate D2E/DX2                !
 ! D137  D(20,33,35,34)         -0.6586         estimate D2E/DX2                !
 ! D138  D(20,33,35,40)        179.5615         estimate D2E/DX2                !
 ! D139  D(41,33,35,34)        178.8164         estimate D2E/DX2                !
 ! D140  D(41,33,35,40)         -0.9635         estimate D2E/DX2                !
 ! D141  D(36,34,35,33)          0.3978         estimate D2E/DX2                !
 ! D142  D(36,34,35,40)       -179.8221         estimate D2E/DX2                !
 ! D143  D(39,34,35,33)       -179.9235         estimate D2E/DX2                !
 ! D144  D(39,34,35,40)         -0.1434         estimate D2E/DX2                !
 ! D145  D(35,34,36,32)          0.0282         estimate D2E/DX2                !
 ! D146  D(35,34,36,38)        178.7115         estimate D2E/DX2                !
 ! D147  D(39,34,36,32)       -179.6498         estimate D2E/DX2                !
 ! D148  D(39,34,36,38)         -0.9665         estimate D2E/DX2                !
 ! D149  D(8,42,43,45)          64.6448         estimate D2E/DX2                !
 ! D150  D(8,42,43,46)        -174.2076         estimate D2E/DX2                !
 ! D151  D(8,42,43,47)         -54.3996         estimate D2E/DX2                !
 ! D152  D(9,42,43,45)        -110.0549         estimate D2E/DX2                !
 ! D153  D(9,42,43,46)          11.0926         estimate D2E/DX2                !
 ! D154  D(9,42,43,47)         130.9006         estimate D2E/DX2                !
 ! D155  D(10,42,43,45)        -21.4364         estimate D2E/DX2                !
 ! D156  D(10,42,43,46)         99.7111         estimate D2E/DX2                !
 ! D157  D(10,42,43,47)       -140.4809         estimate D2E/DX2                !
 ! D158  D(44,42,43,45)        162.4501         estimate D2E/DX2                !
 ! D159  D(44,42,43,46)        -76.4024         estimate D2E/DX2                !
 ! D160  D(44,42,43,47)         43.4056         estimate D2E/DX2                !
 ! D161  D(8,42,44,48)        -107.7825         estimate D2E/DX2                !
 ! D162  D(8,42,44,49)          10.6045         estimate D2E/DX2                !
 ! D163  D(8,42,44,50)         132.6962         estimate D2E/DX2                !
 ! D164  D(9,42,44,48)          64.9018         estimate D2E/DX2                !
 ! D165  D(9,42,44,49)        -176.7112         estimate D2E/DX2                !
 ! D166  D(9,42,44,50)         -54.6195         estimate D2E/DX2                !
 ! D167  D(11,42,44,48)        -20.116          estimate D2E/DX2                !
 ! D168  D(11,42,44,49)         98.271          estimate D2E/DX2                !
 ! D169  D(11,42,44,50)       -139.6373         estimate D2E/DX2                !
 ! D170  D(43,42,44,48)        154.0725         estimate D2E/DX2                !
 ! D171  D(43,42,44,49)        -87.5405         estimate D2E/DX2                !
 ! D172  D(43,42,44,50)         34.5512         estimate D2E/DX2                !
 ! D173  D(42,43,45,81)        131.5806         estimate D2E/DX2                !
 ! D174  D(42,43,45,82)        -43.0463         estimate D2E/DX2                !
 ! D175  D(46,43,45,81)         -0.9862         estimate D2E/DX2                !
 ! D176  D(46,43,45,82)       -175.613          estimate D2E/DX2                !
 ! D177  D(47,43,45,81)       -104.9847         estimate D2E/DX2                !
 ! D178  D(47,43,45,82)         80.3884         estimate D2E/DX2                !
 ! D179  D(42,43,46,91)        170.4107         estimate D2E/DX2                !
 ! D180  D(42,43,46,92)         -8.8068         estimate D2E/DX2                !
 ! D181  D(45,43,46,91)        -63.1053         estimate D2E/DX2                !
 ! D182  D(45,43,46,92)        117.6773         estimate D2E/DX2                !
 ! D183  D(47,43,46,91)         44.7511         estimate D2E/DX2                !
 ! D184  D(47,43,46,92)       -134.4664         estimate D2E/DX2                !
 ! D185  D(42,43,47,51)        -72.5919         estimate D2E/DX2                !
 ! D186  D(42,43,47,52)         98.4676         estimate D2E/DX2                !
 ! D187  D(45,43,47,51)        163.9902         estimate D2E/DX2                !
 ! D188  D(45,43,47,52)        -24.9502         estimate D2E/DX2                !
 ! D189  D(46,43,47,51)         59.3009         estimate D2E/DX2                !
 ! D190  D(46,43,47,52)       -129.6395         estimate D2E/DX2                !
 ! D191  D(42,44,48,101)       105.6146         estimate D2E/DX2                !
 ! D192  D(42,44,48,102)       -60.4789         estimate D2E/DX2                !
 ! D193  D(49,44,48,101)       -26.8785         estimate D2E/DX2                !
 ! D194  D(49,44,48,102)       167.028          estimate D2E/DX2                !
 ! D195  D(50,44,48,101)      -129.4686         estimate D2E/DX2                !
 ! D196  D(50,44,48,102)        64.4379         estimate D2E/DX2                !
 ! D197  D(42,44,49,111)      -171.6779         estimate D2E/DX2                !
 ! D198  D(42,44,49,112)        12.415          estimate D2E/DX2                !
 ! D199  D(48,44,49,111)       -50.8753         estimate D2E/DX2                !
 ! D200  D(48,44,49,112)       133.2176         estimate D2E/DX2                !
 ! D201  D(50,44,49,111)        58.7288         estimate D2E/DX2                !
 ! D202  D(50,44,49,112)      -117.1783         estimate D2E/DX2                !
 ! D203  D(42,44,50,53)        -70.4844         estimate D2E/DX2                !
 ! D204  D(42,44,50,54)        105.0908         estimate D2E/DX2                !
 ! D205  D(48,44,50,53)        170.0399         estimate D2E/DX2                !
 ! D206  D(48,44,50,54)        -14.3849         estimate D2E/DX2                !
 ! D207  D(49,44,50,53)         64.9022         estimate D2E/DX2                !
 ! D208  D(49,44,50,54)       -119.5226         estimate D2E/DX2                !
 ! D209  D(43,45,81,83)       -175.8316         estimate D2E/DX2                !
 ! D210  D(43,45,81,84)          3.5904         estimate D2E/DX2                !
 ! D211  D(82,45,81,83)         -1.2579         estimate D2E/DX2                !
 ! D212  D(82,45,81,84)        178.164          estimate D2E/DX2                !
 ! D213  D(43,45,82,85)        176.7778         estimate D2E/DX2                !
 ! D214  D(43,45,82,86)         -1.3603         estimate D2E/DX2                !
 ! D215  D(81,45,82,85)          1.7766         estimate D2E/DX2                !
 ! D216  D(81,45,82,86)       -176.3615         estimate D2E/DX2                !
 ! D217  D(43,46,91,93)       -179.2898         estimate D2E/DX2                !
 ! D218  D(43,46,91,94)         -0.078          estimate D2E/DX2                !
 ! D219  D(92,46,91,93)         -0.0477         estimate D2E/DX2                !
 ! D220  D(92,46,91,94)        179.1642         estimate D2E/DX2                !
 ! D221  D(43,46,92,95)        178.255          estimate D2E/DX2                !
 ! D222  D(43,46,92,96)         -0.0327         estimate D2E/DX2                !
 ! D223  D(91,46,92,95)         -0.971          estimate D2E/DX2                !
 ! D224  D(91,46,92,96)       -179.2588         estimate D2E/DX2                !
 ! D225  D(43,47,51,53)        -12.3994         estimate D2E/DX2                !
 ! D226  D(43,47,51,55)        169.4543         estimate D2E/DX2                !
 ! D227  D(52,47,51,53)        176.5716         estimate D2E/DX2                !
 ! D228  D(52,47,51,55)         -1.5747         estimate D2E/DX2                !
 ! D229  D(43,47,52,56)       -170.715          estimate D2E/DX2                !
 ! D230  D(43,47,52,57)          9.6535         estimate D2E/DX2                !
 ! D231  D(51,47,52,56)          0.4203         estimate D2E/DX2                !
 ! D232  D(51,47,52,57)       -179.2112         estimate D2E/DX2                !
 ! D233  D(44,48,101,103)     -167.3264         estimate D2E/DX2                !
 ! D234  D(44,48,101,104)       11.6361         estimate D2E/DX2                !
 ! D235  D(102,48,101,103)      -0.9759         estimate D2E/DX2                !
 ! D236  D(102,48,101,104)     177.9867         estimate D2E/DX2                !
 ! D237  D(44,48,102,105)      168.3171         estimate D2E/DX2                !
 ! D238  D(44,48,102,106)       -9.1438         estimate D2E/DX2                !
 ! D239  D(101,48,102,105)       1.846          estimate D2E/DX2                !
 ! D240  D(101,48,102,106)    -175.6149         estimate D2E/DX2                !
 ! D241  D(44,49,111,113)     -177.4596         estimate D2E/DX2                !
 ! D242  D(44,49,111,114)        2.6358         estimate D2E/DX2                !
 ! D243  D(112,49,111,113)      -1.5238         estimate D2E/DX2                !
 ! D244  D(112,49,111,114)     178.5716         estimate D2E/DX2                !
 ! D245  D(44,49,112,115)      177.0311         estimate D2E/DX2                !
 ! D246  D(44,49,112,116)       -1.034          estimate D2E/DX2                !
 ! D247  D(111,49,112,115)       1.0241         estimate D2E/DX2                !
 ! D248  D(111,49,112,116)    -177.0409         estimate D2E/DX2                !
 ! D249  D(44,50,53,51)         -7.7462         estimate D2E/DX2                !
 ! D250  D(44,50,53,58)        174.1141         estimate D2E/DX2                !
 ! D251  D(54,50,53,51)        176.627          estimate D2E/DX2                !
 ! D252  D(54,50,53,58)         -1.5127         estimate D2E/DX2                !
 ! D253  D(44,50,54,59)       -172.8605         estimate D2E/DX2                !
 ! D254  D(44,50,54,60)          7.6518         estimate D2E/DX2                !
 ! D255  D(53,50,54,59)          2.7439         estimate D2E/DX2                !
 ! D256  D(53,50,54,60)       -176.7438         estimate D2E/DX2                !
 ! D257  D(47,51,53,50)         74.6489         estimate D2E/DX2                !
 ! D258  D(47,51,53,58)       -107.1644         estimate D2E/DX2                !
 ! D259  D(55,51,53,50)       -107.1683         estimate D2E/DX2                !
 ! D260  D(55,51,53,58)         71.0184         estimate D2E/DX2                !
 ! D261  D(47,51,55,61)          1.6159         estimate D2E/DX2                !
 ! D262  D(47,51,55,62)       -176.8664         estimate D2E/DX2                !
 ! D263  D(53,51,55,61)       -176.6301         estimate D2E/DX2                !
 ! D264  D(53,51,55,62)          4.8877         estimate D2E/DX2                !
 ! D265  D(47,52,56,61)          0.725          estimate D2E/DX2                !
 ! D266  D(47,52,56,63)       -179.4664         estimate D2E/DX2                !
 ! D267  D(57,52,56,61)       -179.6417         estimate D2E/DX2                !
 ! D268  D(57,52,56,63)          0.1669         estimate D2E/DX2                !
 ! D269  D(50,53,58,64)         -1.0903         estimate D2E/DX2                !
 ! D270  D(50,53,58,65)        179.891          estimate D2E/DX2                !
 ! D271  D(51,53,58,64)       -179.3463         estimate D2E/DX2                !
 ! D272  D(51,53,58,65)          1.6349         estimate D2E/DX2                !
 ! D273  D(50,54,59,64)         -1.2658         estimate D2E/DX2                !
 ! D274  D(50,54,59,66)        179.4669         estimate D2E/DX2                !
 ! D275  D(60,54,59,64)        178.228          estimate D2E/DX2                !
 ! D276  D(60,54,59,66)         -1.0392         estimate D2E/DX2                !
 ! D277  D(51,55,61,56)         -0.4933         estimate D2E/DX2                !
 ! D278  D(51,55,61,67)       -179.3624         estimate D2E/DX2                !
 ! D279  D(62,55,61,56)        178.0551         estimate D2E/DX2                !
 ! D280  D(62,55,61,67)         -0.814          estimate D2E/DX2                !
 ! D281  D(51,55,62,68)        178.9154         estimate D2E/DX2                !
 ! D282  D(51,55,62,69)          0.1685         estimate D2E/DX2                !
 ! D283  D(61,55,62,68)          0.4062         estimate D2E/DX2                !
 ! D284  D(61,55,62,69)       -178.3407         estimate D2E/DX2                !
 ! D285  D(52,56,61,55)         -0.6679         estimate D2E/DX2                !
 ! D286  D(52,56,61,67)        178.1852         estimate D2E/DX2                !
 ! D287  D(63,56,61,55)        179.5213         estimate D2E/DX2                !
 ! D288  D(63,56,61,67)         -1.6256         estimate D2E/DX2                !
 ! D289  D(53,58,64,59)          2.5448         estimate D2E/DX2                !
 ! D290  D(53,58,64,70)       -178.2413         estimate D2E/DX2                !
 ! D291  D(65,58,64,59)       -178.3908         estimate D2E/DX2                !
 ! D292  D(65,58,64,70)          0.8232         estimate D2E/DX2                !
 ! D293  D(53,58,65,71)        179.0911         estimate D2E/DX2                !
 ! D294  D(53,58,65,72)          0.0258         estimate D2E/DX2                !
 ! D295  D(64,58,65,71)          0.0537         estimate D2E/DX2                !
 ! D296  D(64,58,65,72)       -179.0116         estimate D2E/DX2                !
 ! D297  D(54,59,64,58)         -1.3879         estimate D2E/DX2                !
 ! D298  D(54,59,64,70)        179.4089         estimate D2E/DX2                !
 ! D299  D(66,59,64,58)        177.8871         estimate D2E/DX2                !
 ! D300  D(66,59,64,70)         -1.3161         estimate D2E/DX2                !
 ! D301  D(55,61,67,73)          0.5884         estimate D2E/DX2                !
 ! D302  D(55,61,67,74)       -179.9181         estimate D2E/DX2                !
 ! D303  D(56,61,67,73)       -178.2549         estimate D2E/DX2                !
 ! D304  D(56,61,67,74)          1.2386         estimate D2E/DX2                !
 ! D305  D(55,62,68,73)          0.245          estimate D2E/DX2                !
 ! D306  D(55,62,68,75)       -179.275          estimate D2E/DX2                !
 ! D307  D(69,62,68,73)        178.9926         estimate D2E/DX2                !
 ! D308  D(69,62,68,75)         -0.5273         estimate D2E/DX2                !
 ! D309  D(58,64,70,76)         -0.987          estimate D2E/DX2                !
 ! D310  D(58,64,70,77)        179.4041         estimate D2E/DX2                !
 ! D311  D(59,64,70,76)        178.2085         estimate D2E/DX2                !
 ! D312  D(59,64,70,77)         -1.4005         estimate D2E/DX2                !
 ! D313  D(58,65,71,76)         -0.7931         estimate D2E/DX2                !
 ! D314  D(58,65,71,78)       -179.8666         estimate D2E/DX2                !
 ! D315  D(72,65,71,76)        178.2756         estimate D2E/DX2                !
 ! D316  D(72,65,71,78)         -0.7979         estimate D2E/DX2                !
 ! D317  D(61,67,73,68)          0.0703         estimate D2E/DX2                !
 ! D318  D(61,67,73,79)        179.671          estimate D2E/DX2                !
 ! D319  D(74,67,73,68)       -179.4119         estimate D2E/DX2                !
 ! D320  D(74,67,73,79)          0.1888         estimate D2E/DX2                !
 ! D321  D(62,68,73,67)         -0.4919         estimate D2E/DX2                !
 ! D322  D(62,68,73,79)        179.9052         estimate D2E/DX2                !
 ! D323  D(75,68,73,67)        179.0283         estimate D2E/DX2                !
 ! D324  D(75,68,73,79)         -0.5746         estimate D2E/DX2                !
 ! D325  D(64,70,76,71)          0.2517         estimate D2E/DX2                !
 ! D326  D(64,70,76,80)       -179.7623         estimate D2E/DX2                !
 ! D327  D(77,70,76,71)        179.8519         estimate D2E/DX2                !
 ! D328  D(77,70,76,80)         -0.1621         estimate D2E/DX2                !
 ! D329  D(65,71,76,70)          0.6417         estimate D2E/DX2                !
 ! D330  D(65,71,76,80)       -179.3443         estimate D2E/DX2                !
 ! D331  D(78,71,76,70)        179.7156         estimate D2E/DX2                !
 ! D332  D(78,71,76,80)         -0.2704         estimate D2E/DX2                !
 ! D333  D(45,81,83,87)          0.0265         estimate D2E/DX2                !
 ! D334  D(45,81,83,88)        179.8247         estimate D2E/DX2                !
 ! D335  D(84,81,83,87)       -179.4078         estimate D2E/DX2                !
 ! D336  D(84,81,83,88)          0.3904         estimate D2E/DX2                !
 ! D337  D(45,82,85,87)         -1.0522         estimate D2E/DX2                !
 ! D338  D(45,82,85,89)        179.9144         estimate D2E/DX2                !
 ! D339  D(86,82,85,87)        177.0887         estimate D2E/DX2                !
 ! D340  D(86,82,85,89)         -1.9447         estimate D2E/DX2                !
 ! D341  D(81,83,87,85)          0.7321         estimate D2E/DX2                !
 ! D342  D(81,83,87,90)        179.9931         estimate D2E/DX2                !
 ! D343  D(88,83,87,85)       -179.0646         estimate D2E/DX2                !
 ! D344  D(88,83,87,90)          0.1965         estimate D2E/DX2                !
 ! D345  D(82,85,87,83)         -0.2262         estimate D2E/DX2                !
 ! D346  D(82,85,87,90)       -179.4869         estimate D2E/DX2                !
 ! D347  D(89,85,87,83)        178.7973         estimate D2E/DX2                !
 ! D348  D(89,85,87,90)         -0.4633         estimate D2E/DX2                !
 ! D349  D(46,91,93,97)          1.0844         estimate D2E/DX2                !
 ! D350  D(46,91,93,98)        179.6715         estimate D2E/DX2                !
 ! D351  D(94,91,93,97)       -178.1336         estimate D2E/DX2                !
 ! D352  D(94,91,93,98)          0.4535         estimate D2E/DX2                !
 ! D353  D(46,92,95,97)          0.9575         estimate D2E/DX2                !
 ! D354  D(46,92,95,99)       -178.6694         estimate D2E/DX2                !
 ! D355  D(96,92,95,97)        179.2335         estimate D2E/DX2                !
 ! D356  D(96,92,95,99)         -0.3933         estimate D2E/DX2                !
 ! D357  D(91,93,97,95)         -1.1002         estimate D2E/DX2                !
 ! D358  D(91,93,97,100)       178.7462         estimate D2E/DX2                !
 ! D359  D(98,93,97,95)       -179.6806         estimate D2E/DX2                !
 ! D360  D(98,93,97,100)         0.1657         estimate D2E/DX2                !
 ! D361  D(92,95,97,93)          0.0901         estimate D2E/DX2                !
 ! D362  D(92,95,97,100)      -179.7561         estimate D2E/DX2                !
 ! D363  D(99,95,97,93)        179.715          estimate D2E/DX2                !
 ! D364  D(99,95,97,100)        -0.1312         estimate D2E/DX2                !
 ! D365  D(48,101,103,107)      -0.2416         estimate D2E/DX2                !
 ! D366  D(48,101,103,108)     179.4807         estimate D2E/DX2                !
 ! D367  D(104,101,103,107)   -179.2213         estimate D2E/DX2                !
 ! D368  D(104,101,103,108)      0.501          estimate D2E/DX2                !
 ! D369  D(48,102,105,107)      -1.501          estimate D2E/DX2                !
 ! D370  D(48,102,105,109)     179.7405         estimate D2E/DX2                !
 ! D371  D(106,102,105,107)    175.9868         estimate D2E/DX2                !
 ! D372  D(106,102,105,109)     -2.7717         estimate D2E/DX2                !
 ! D373  D(101,103,107,105)      0.6229         estimate D2E/DX2                !
 ! D374  D(101,103,107,110)    179.9146         estimate D2E/DX2                !
 ! D375  D(108,103,107,105)   -179.0973         estimate D2E/DX2                !
 ! D376  D(108,103,107,110)      0.1944         estimate D2E/DX2                !
 ! D377  D(102,105,107,103)      0.2385         estimate D2E/DX2                !
 ! D378  D(102,105,107,110)   -179.0539         estimate D2E/DX2                !
 ! D379  D(109,105,107,103)    178.9887         estimate D2E/DX2                !
 ! D380  D(109,105,107,110)     -0.3037         estimate D2E/DX2                !
 ! D381  D(49,111,113,117)       1.0696         estimate D2E/DX2                !
 ! D382  D(49,111,113,118)    -179.776          estimate D2E/DX2                !
 ! D383  D(114,111,113,117)   -179.0252         estimate D2E/DX2                !
 ! D384  D(114,111,113,118)      0.1292         estimate D2E/DX2                !
 ! D385  D(49,112,115,117)      -0.0673         estimate D2E/DX2                !
 ! D386  D(49,112,115,119)    -179.0397         estimate D2E/DX2                !
 ! D387  D(116,112,115,117)    177.9648         estimate D2E/DX2                !
 ! D388  D(116,112,115,119)     -1.0076         estimate D2E/DX2                !
 ! D389  D(111,113,117,115)     -0.0932         estimate D2E/DX2                !
 ! D390  D(111,113,117,120)    179.1775         estimate D2E/DX2                !
 ! D391  D(118,113,117,115)   -179.2452         estimate D2E/DX2                !
 ! D392  D(118,113,117,120)      0.0254         estimate D2E/DX2                !
 ! D393  D(112,115,117,113)     -0.4067         estimate D2E/DX2                !
 ! D394  D(112,115,117,120)   -179.6764         estimate D2E/DX2                !
 ! D395  D(119,115,117,113)    178.5597         estimate D2E/DX2                !
 ! D396  D(119,115,117,120)     -0.71           estimate D2E/DX2                !
 --------------------------------------------------------------------------------
 Trust Radius=3.00D-01 FncErr=1.00D-07 GrdErr=1.00D-06
 Number of steps in this run=    720 maximum allowed number of steps=    720.
 GradGradGradGradGradGradGradGradGradGradGradGradGradGradGradGradGradGrad

 Stoichiometry    C60H54N2OP2Ru
 Framework group  C1[X(C60H54N2OP2Ru)]
 Deg. of freedom   354
 Full point group                 C1      NOp   1
 Largest Abelian subgroup         C1      NOp   1
 Largest concise Abelian subgroup C1      NOp   1
                         Standard orientation:                         
 ---------------------------------------------------------------------
 Center     Atomic      Atomic             Coordinates (Angstroms)
 Number     Number       Type             X           Y           Z
 ---------------------------------------------------------------------
      1          1           0        2.019903   -3.847574    3.263220
      2          6           0        1.495006   -3.172023    2.573537
      3          6           0        2.564962   -2.353920    1.862666
      4          8           0        3.252779   -1.552973    2.544551
      5          1           0        2.721129   -2.454613    0.847531
      6          1           0        0.903397   -3.787120    1.893620
      7          1           0        0.828484   -2.534319    3.159052
      8          1           0        1.428372   -1.364333    0.938594
      9          1           0        1.094955    1.421788   -0.881200
     10          7           0        2.787308    0.894311    1.148278
     11          7           0        2.867701   -0.503529   -1.191700
     12          6           0        3.900636    1.217940    0.233429
     13          1           0        2.558949    1.717013    1.703439
     14          1           0        3.077596    0.156428    1.805078
     15          6           0        4.152060   -0.033495   -0.623143
     16          1           0        2.936312   -1.507481   -1.358110
     17          1           0        2.728345   -0.084732   -2.108457
     18          1           0        4.778755    1.462414    0.793840
     19          6           0        3.822313    2.488642   -0.639593
     20          6           0        4.951681   -1.160776    0.057227
     21          1           0        4.829060    0.205321   -1.416522
     22          6           0        5.036865    3.191880   -0.808177
     23          6           0        2.687169    2.980567   -1.266166
     24          6           0        3.917605    4.843024   -2.186518
     25          6           0        2.717153    4.146229   -2.028747
     26          6           0        5.080778    4.355630   -1.575518
     27          1           0        5.950477    2.831752   -0.337968
     28          1           0        6.021068    4.888970   -1.697327
     29          1           0        3.953642    5.754837   -2.776697
     30          1           0        1.807170    4.511333   -2.498034
     31          1           0        1.690387    2.328973   -1.135946
     32          6           0        5.442949   -1.087795    1.364453
     33          6           0        5.308025   -2.265818   -0.742926
     34          6           0        6.618340   -3.192615    1.070251
     35          6           0        6.127514   -3.274930   -0.239019
     36          6           0        6.274834   -2.100507    1.865960
     37          1           0        5.161670   -0.271165    2.030098
     38          1           0        6.632616   -2.034731    2.892605
[...]
   D329       0.01220   0.00461   0.00000   0.00061   0.00068   0.01288
   D330      -3.13037  -0.00125   0.00000  -0.00017  -0.00020  -3.13057
   D331       3.13747   0.00352   0.00000   0.00048   0.00057   3.13804
   D332      -0.00510  -0.00233   0.00000  -0.00031  -0.00031  -0.00541
   D333      -0.00158   0.00297   0.00000   0.00038   0.00025  -0.00133
   D334       3.13656   0.00076   0.00000   0.00010   0.00006   3.13662
   D335      -3.13046   0.00271   0.00000   0.00035   0.00015  -3.13031
   D336       0.00767   0.00051   0.00000   0.00007  -0.00004   0.00764
   D337      -0.01790  -0.00921   0.00000  -0.00119  -0.00120  -0.01910
   D338       3.13854   0.00219   0.00000   0.00028   0.00033   3.13887
   D339       3.10184  -0.02197   0.00000  -0.00283  -0.00296   3.09888
   D340      -0.02490  -0.01057   0.00000  -0.00136  -0.00143  -0.02634
   D341       0.01041  -0.00358   0.00000  -0.00046  -0.00045   0.00996
   D342      -3.14081  -0.00158   0.00000  -0.00020  -0.00016  -3.14097
   D343      -3.12770  -0.00134   0.00000  -0.00017  -0.00026  -3.12796
   D344       0.00426   0.00066   0.00000   0.00009   0.00003   0.00430
   D345      -0.00075   0.00692   0.00000   0.00089   0.00096   0.00021
   D346      -3.13270   0.00492   0.00000   0.00063   0.00066  -3.13204
   D347       3.12581  -0.00474   0.00000  -0.00061  -0.00060   3.12521
   D348      -0.00614  -0.00674   0.00000  -0.00087  -0.00090  -0.00704
   D349       0.01993   0.01407   0.00000   0.00150   0.00164   0.02157
   D350       3.13655   0.00812   0.00000   0.00035   0.00039   3.13694
   D351      -3.10778   0.01131   0.00000   0.00287   0.00302  -3.10476
   D352       0.00884   0.00537   0.00000   0.00172   0.00177   0.01061
   D353       0.01584  -0.00409   0.00000   0.00062   0.00071   0.01656
   D354      -3.11823   0.03720   0.00000   0.00287   0.00308  -3.11515
   D355       3.12554  -0.07125   0.00000  -0.00393  -0.00402   3.12152
   D356      -0.00853  -0.02996   0.00000  -0.00167  -0.00166  -0.01019
   D357      -0.01797   0.01319   0.00000   0.00080   0.00079  -0.01718
   D358       3.11942  -0.01378   0.00000  -0.00132  -0.00142   3.11800
   D359      -3.13450   0.01886   0.00000   0.00191   0.00200  -3.13250
   D360       0.00289  -0.00811   0.00000  -0.00020  -0.00021   0.00268
   D361       0.00046  -0.01716   0.00000  -0.00168  -0.00176  -0.00131
   D362      -3.13693   0.00984   0.00000   0.00044   0.00045  -3.13648
   D363       3.13447  -0.05811   0.00000  -0.00399  -0.00420   3.13026
   D364      -0.00292  -0.03112   0.00000  -0.00187  -0.00199  -0.00491
   D365       0.00110   0.05413   0.00000   0.00697   0.00686   0.00795
   D366       3.13460   0.01937   0.00000   0.00249   0.00240   3.13700
   D367      -3.12540   0.03409   0.00000   0.00439   0.00434  -3.12106
   D368       0.00810  -0.00067   0.00000  -0.00009  -0.00012   0.00799
   D369      -0.03235  -0.02458   0.00000  -0.00316  -0.00303  -0.03538
   D370       3.13057  -0.03156   0.00000  -0.00406  -0.00399   3.12658
   D371       3.08560   0.07092   0.00000   0.00913   0.00924   3.09484
   D372      -0.03466   0.06393   0.00000   0.00823   0.00828  -0.02638
   D373       0.00789  -0.02170   0.00000  -0.00279  -0.00288   0.00502
   D374       3.13983  -0.01286   0.00000  -0.00166  -0.00166   3.13818
   D375      -3.12554   0.01337   0.00000   0.00172   0.00162  -3.12392
   D376       0.00640   0.02220   0.00000   0.00286   0.00284   0.00924
   D377       0.00777   0.00820   0.00000   0.00106   0.00110   0.00887
   D378      -3.12418  -0.00062   0.00000  -0.00008  -0.00012  -3.12430
   D379       3.12791   0.01534   0.00000   0.00197   0.00208   3.12998
   D380      -0.00404   0.00651   0.00000   0.00084   0.00086  -0.00318
   D381       0.01744  -0.00149   0.00000  -0.00019  -0.00018   0.01725
   D382      -3.13987  -0.00468   0.00000  -0.00060  -0.00059  -3.14046
   D383      -3.12158   0.00349   0.00000   0.00045   0.00044  -3.12114
   D384       0.00430   0.00031   0.00000   0.00004   0.00003   0.00433
   D385      -0.00138  -0.00140   0.00000  -0.00018  -0.00018  -0.00156
   D386      -3.12713  -0.00505   0.00000  -0.00065  -0.00063  -3.12776
   D387       3.12400   0.03743   0.00000   0.00482   0.00472   3.12872
   D388      -0.00175   0.03377   0.00000   0.00435   0.00427   0.00252
   D389      -0.00423  -0.00912   0.00000  -0.00117  -0.00116  -0.00540
   D390       3.12779   0.00157   0.00000   0.00020   0.00020   3.12799
   D391      -3.13009  -0.00599   0.00000  -0.00077  -0.00076  -3.13085
   D392       0.00193   0.00471   0.00000   0.00061   0.00060   0.00253
   D393      -0.00399   0.01065   0.00000   0.00137   0.00136  -0.00263
   D394      -3.13600  -0.00010   0.00000  -0.00001  -0.00001  -3.13601
   D395       3.12158   0.01458   0.00000   0.00188   0.00184   3.12342
   D396      -0.01043   0.00383   0.00000   0.00049   0.00047  -0.00996
         Item               Value     Threshold  Converged?
 Maximum Force            3.606006     0.000450     NO 
 RMS     Force            0.254588     0.000300     NO 
 Maximum Displacement     1.656082     0.001800     NO 
 RMS     Displacement     0.279091     0.001200     NO 
 Predicted change in Energy=-4.282349D+00
 GradGradGradGradGradGradGradGradGradGradGradGradGradGradGradGradGradGrad

 Stoichiometry    C60H54N2OP2Ru
 Framework group  C1[X(C60H54N2OP2Ru)]
 Deg. of freedom   354
 Full point group                 C1      NOp   1
 Largest Abelian subgroup         C1      NOp   1
 Largest concise Abelian subgroup C1      NOp   1
                         Standard orientation:                         
 ---------------------------------------------------------------------
 Center     Atomic      Atomic             Coordinates (Angstroms)
 Number     Number       Type             X           Y           Z
 ---------------------------------------------------------------------
      1          1           0        2.028464   -4.583210    1.444932
      2          6           0        1.444333   -3.726487    1.085167
      3          6           0        2.415611   -2.625576    0.763815
      4          8           0        3.058708   -2.114474    1.715013
      5          1           0        2.525518   -2.304748   -0.220010
      6          1           0        0.883279   -4.056261    0.211534
      7          1           0        0.752109   -3.424656    1.872594
      8          1           0        1.143419   -1.482138    0.317603
      9          1           0        0.718981    1.708643   -0.146062
     10          7           0        2.235168    0.565927    1.371474
     11          7           0        2.343377    0.175652   -1.179570
     12          6           0        3.336298    1.269427    0.664832
     13          1           0        1.914380    1.091420    2.186621
     14          1           0        2.551402   -0.365473    1.684796
     15          6           0        3.599966    0.408263   -0.535374
     16          1           0        2.369405   -0.708517   -1.691326
     17          1           0        2.173019    0.913241   -1.862256
     18          1           0        4.192596    1.323494    1.304467
     19          6           0        3.287263    2.778865    0.226315
     20          6           0        4.382135   -0.881825   -0.340984
     21          1           0        4.270249    0.921312   -1.189179
     22          6           0        4.457699    3.546959    0.341684
     23          6           0        2.197010    3.415197   -0.273561
     24          6           0        3.255344    5.508677   -0.487052
     25          6           0        2.093093    4.705770   -0.602882
     26          6           0        4.440307    4.903227   -0.020825
     27          1           0        5.379811    3.108068    0.717247
     28          1           0        5.345494    5.498849    0.073294
     29          1           0        3.237110    6.564104   -0.744569
     30          1           0        1.096361    5.049616   -0.939914
     31          1           0        1.291145    2.692167   -0.396108
     32          6           0        4.903944   -1.316458    0.878788
     33          6           0        4.690803   -1.597372   -1.509316
     34          6           0        6.023869   -3.160047   -0.233519
     35          6           0        5.499257   -2.729536   -1.458031
     36          6           0        5.724707   -2.452216    0.929256
     37          1           0        4.658901   -0.812154    1.813138
     38          1           0        6.109445   -2.787859    1.891032
     39          1           0        6.656271   -4.043709   -0.191168
     40          1           0        5.725757   -3.278153   -2.369440
     41          1           0        4.308056   -1.266635   -2.472754
     42         44           0        0.777785    0.164161    0.087195
     43         15           0       -0.561925    0.308000    1.395643
     44         15           0       -0.290266   -0.092106   -1.351593
     45          6           0        0.253958    0.006148    2.891455
     46          6           0       -1.649638    1.723414    1.682728
     47          6           0       -1.663063   -0.969403    1.131029
     48          6           0        0.663371    0.499527   -2.671359
     49          6           0       -0.713781   -1.743949   -1.641329
     50          6           0       -1.800994    0.795350   -1.360782
     51          6           0       -2.537198   -0.876687    0.156473
     52          6           0       -1.487666   -2.176126    1.827311
     53          6           0       -2.751388    0.390527   -0.523239
     54          6           0       -1.998261    1.940839   -2.153317
     55          6           0       -3.317112   -2.008515   -0.235777
     56          6           0       -2.222175   -3.283328    1.520288
     57          1           0       -0.767793   -2.227109    2.636457
     58          6           0       -3.959020    1.125776   -0.355070
     59          6           0       -3.129451    2.700941   -2.020434
     60          1           0       -1.250821    2.233920   -2.879672
     61          6           0       -3.162063   -3.232573    0.463549
     62          6           0       -4.226005   -1.976409   -1.325843
     63          1           0       -2.089694   -4.208455    2.075654
     64          6           0       -4.139564    2.322167   -1.096727
     65          6           0       -4.994012    0.728982    0.531323
     66          1           0       -3.268244    3.593067   -2.626033
     67          6           0       -3.917231   -4.370206    0.081464
     68          6           0       -4.942296   -3.092115   -1.684988
     69          1           0       -4.342571   -1.061269   -1.895789
     70          6           0       -5.319070    3.092094   -0.921871
     71          6           0       -6.135036    1.478952    0.672185
     72          1           0       -4.875772   -0.172987    1.120584
     73          6           0       -4.793501   -4.304115   -0.972543
     74          1           0       -3.780255   -5.296032    0.635000
     75          1           0       -5.623867   -3.045572   -2.529725
     76          6           0       -6.300778    2.679927   -0.055578
     77          1           0       -5.431047    4.009646   -1.494281
     78          1           0       -6.911219    1.155458    1.360002
     79          1           0       -5.366944   -5.178605   -1.266595
     80          1           0       -7.203959    3.269712    0.072483
     81          6           0        0.282548    0.554923    4.154664
     82          6           0        1.078272   -1.006251    2.501231
     83          6           0        1.190105    0.022033    5.070908
     84          1           0       -0.360462    1.379244    4.441338
     85          6           0        1.969429   -1.552240    3.391136
     86          1           0        0.998026   -1.327232    1.458676
     87          6           0        2.032366   -1.037442    4.693651
     88          1           0        1.242013    0.434608    6.074676
     89          1           0        2.621925   -2.360575    3.074787
     90          1           0        2.737789   -1.451306    5.408506
     91          6           0       -2.713265    1.651699    2.573914
     92          6           0       -1.467432    2.891859    0.999714
     93          6           0       -3.556043    2.744324    2.764066
     94          1           0       -2.908851    0.734780    3.123706
     95          6           0       -2.291344    3.984898    1.143743
     96          1           0       -0.637276    2.906675    0.292778
     97          6           0       -3.353823    3.919791    2.037613
     98          1           0       -4.386018    2.671731    3.460975
     99          1           0       -2.109197    4.876789    0.554776
    100          1           0       -4.020688    4.767800    2.165234
    101          6           0        1.368120   -0.266729   -3.582264
    102          6           0        0.900052    1.854292   -2.523465
    103          6           0        2.309625    0.349606   -4.399478
    104          1           0        1.207162   -1.336885   -3.660448
    105          6           0        1.822244    2.468533   -3.345412
    106          1           0        0.382267    2.441577   -1.766260
    107          6           0        2.539575    1.722019   -4.287283
    108          1           0        2.870667   -0.245346   -5.114656
    109          1           0        2.002981    3.534900   -3.244359
    110          1           0        3.276265    2.206825   -4.921384
    111          6           0       -1.361187   -2.319243   -2.714178
    112          6           0       -0.344617   -2.448690   -0.493497
    113          6           0       -1.637211   -3.678101   -2.659403
    114          1           0       -1.652312   -1.728810   -3.580155
    115          6           0       -0.632266   -3.794055   -0.446958
    116          1           0        0.154040   -1.926849    0.350971
    117          6           0       -1.274860   -4.415694   -1.522368
    118          1           0       -2.145112   -4.164793   -3.487286
    119          1           0       -0.368743   -4.364006    0.437421
    120          1           0       -1.502328   -5.476793   -1.474188
 ---------------------------------------------------------------------
 Rotational constants (GHZ):      0.0558791      0.0410262      0.0350918
 Basis read from rwf:  (5D, 7F)
 There are  1130 symmetry adapted cartesian basis functions of A   symmetry.
 There are  1062 symmetry adapted basis functions of A   symmetry.
  1062 basis functions,  2149 primitive gaussians,  1130 cartesian basis functions
   255 alpha electrons      255 beta electrons
       nuclear repulsion energy     14508.4982534196 Hartrees.
 NAtoms=  120 NActive=  120 NUniq=  120 SFac= 1.00D+00 NAtFMM=   60 NAOKFM=T Big=T
 Integral buffers will be    131072 words long.
 Raffenetti 2 integral format.
 Two-electron integral symmetry is turned on.
 Nuclear repulsion after empirical dispersion term =    14508.2903256817 Hartrees.
 ------------------------------------------------------------------------------
 Polarizable Continuum Model (PCM)
 =================================
 Model                : PCM (using non-symmetric T matrix).
 Atomic radii         : SMD-Coulomb.
 Polarization charges : Total charges.
 Charge compensation  : None.
 Solution method      : On-the-fly selection.
 Cavity type          : VdW (van der Waals Surface) (Alpha=1.000).
 Cavity algorithm     : GePol (No added spheres)
                        Default sphere list used, NSphG=  120.
                        Lebedev-Laikov grids with approx.  5.0 points / Ang**2.
                        Smoothing algorithm: Karplus/York (Gamma=1.0000).
                        Polarization charges: spherical gaussians, with
                                              point-specific exponents (IZeta= 3).
                        Self-potential: point-specific (ISelfS= 7).
                        Self-field    : sphere-specific E.n sum rule (ISelfD= 2).
 1st derivatives      : Analytical E(r).r(x)/FMM algorithm (CHGder, D1EAlg=3).
                        Cavity 1st derivative terms included.
 Solvent              : 2-Propanol, Eps=  19.264000 Eps(inf)=   1.897782
 ------------------------------------------------------------------------------
 ------------------------------------------------------------------------------
 Atomic radii for non-electrostatic terms: SMD-CDS.
 ------------------------------------------------------------------------------
 Nuclear repulsion after PCM non-electrostatic terms =    14508.2789971530 Hartrees.
 One-electron integrals computed using PRISM.
 NBasis=  1062 RedAO= T EigKep=  1.24D-04  NBF=  1062
 NBsUse=  1062 1.00D-06 EigRej= -1.00D+00 NBFU=  1062
 Defaulting to unpruned grid for atomic number  44.
 Initial guess from the checkpoint file:  "/lscratch/vmi38398/606917.sapelo2/Gau-397144.chk"
 B after Tr=     0.000000    0.000000    0.000000
         Rot=    0.998689   -0.048012   -0.002832   -0.017537 Ang=  -5.87 deg.
 ExpMin= 1.60D-02 ExpMax= 1.94D+04 ExpMxC= 2.91D+03 IAcc=3 IRadAn=         5 AccDes= 0.00D+00
 Harris functional with IExCor= 4639 and IRadAn=       5 diagonalized for initial guess.
 HarFok:  IExCor= 4639 AccDes= 0.00D+00 IRadAn=         5 IDoV= 1 UseB2=F ITyADJ=14
 ICtDFT=  3500011 ScaDFX=  1.000000  1.000000  1.000000  1.000000
 Defaulting to unpruned grid for atomic number  44.
 Defaulting to unpruned grid for atomic number  44.
 Defaulting to unpruned grid for atomic number  44.
 Defaulting to unpruned grid for atomic number  44.
 Defaulting to unpruned grid for atomic number  44.
 Defaulting to unpruned grid for atomic number  44.
 Defaulting to unpruned grid for atomic number  44.
 Defaulting to unpruned grid for atomic number  44.
 Defaulting to unpruned grid for atomic number  44.
 Defaulting to unpruned grid for atomic number  44.
 Defaulting to unpruned grid for atomic number  44.
 Defaulting to unpruned grid for atomic number  44.
 Defaulting to unpruned grid for atomic number  44.
 Defaulting to unpruned grid for atomic number  44.
 FoFCou: FMM=F IPFlag=           0 FMFlag=      100000 FMFlg1=        2001
         NFxFlg=           0 DoJE=T BraDBF=F KetDBF=T FulRan=T
         wScrn=  0.000000 ICntrl=     500 IOpCl=  0 I1Cent=   200000004 NGrid=           0
         NMat0=    1 NMatS0=      1 NMatT0=    0 NMatD0=    1 NMtDS0=    0 NMtDT0=    0
 Petite list used in FoFCou.
 Requested convergence on RMS density matrix=1.00D-08 within 128 cycles.
 Requested convergence on MAX density matrix=1.00D-06.
 Requested convergence on             energy=1.00D-06.
 No special actions if energy rises.
 Defaulting to unpruned grid for atomic number  44.
 Defaulting to unpruned grid for atomic number  44.
 Defaulting to unpruned grid for atomic number  44.
 Defaulting to unpruned grid for atomic number  44.
 Defaulting to unpruned grid for atomic number  44.
 Defaulting to unpruned grid for atomic number  44.
 Defaulting to unpruned grid for atomic number  44.
 Defaulting to unpruned grid for atomic number  44.
 Defaulting to unpruned grid for atomic number  44.
 Defaulting to unpruned grid for atomic number  44.
 Defaulting to unpruned grid for atomic number  44.
 Defaulting to unpruned grid for atomic number  44.
 Defaulting to unpruned grid for atomic number  44.
 Defaulting to unpruned grid for atomic number  44.
 Inv3:  Mode=1 IEnd=   145283043.
 Iteration    1 A*A^-1 deviation from unit magnitude is 8.10D-15 for   6944.
 Iteration    1 A*A^-1 deviation from orthogonality  is 1.26D-14 for   6906   1207.
 Iteration    1 A^-1*A deviation from unit magnitude is 8.22D-15 for   6944.
 Iteration    1 A^-1*A deviation from orthogonality  is 2.39D-11 for   6439   6432.
