 Entering Gaussian System, Link 0=g09
 Input=/home/vmi38398/chem/asymmetric_hydrogenation/debug/S_binap/S_binap-SS_dpen_Ph/R/ts1/Cf1/S_binap-SS_dpen_Ph.R.ts1.Cf1.2.com
 Output=/home/vmi38398/chem/asymmetric_hydrogenation/debug/S_binap/S_binap-SS_dpen_Ph/R/ts1/Cf1/S_binap-SS_dpen_Ph.R.ts1.Cf1.2.log
 Initial command:
 /usr/local/apps/eb/gaussian/09-Intel-SSE4_2/g09/l1.exe "/lscratch/vmi38398/651414.sapelo2/Gau-157082.inp" -scrdir="/lscratch/vmi38398/651414.sapelo2/"
 Default is to use a total of  14 processors:
                               14 via shared-memory
                                1 via Linda
 Entering Link 1 = /usr/local/apps/eb/gaussian/09-Intel-SSE4_2/g09/l1.exe PID=    157083.
  
 Copyright (c) 1988,1990,1992,1993,1995,1998,2003,2009,2013,
            Gaussian, Inc.  All Rights Reserved.
  
 This is part of the Gaussian(R) 09 program.  It is based on
 the Gaussian(R) 03 system (copyright 2003, Gaussian, Inc.),
 the Gaussian(R) 98 system (copyright 1998, Gaussian, Inc.),
 the Gaussian(R) 94 system (copyright 1995, Gaussian, Inc.),
 the Gaussian 92(TM) system (copyright 1992, Gaussian, Inc.),
 the Gaussian 90(TM) system (copyright 1990, Gaussian, Inc.),
 the Gaussian 88(TM) system (copyright 1988, Gaussian, Inc.),
 the Gaussian 86(TM) system (copyright 1986, Carnegie Mellon
 University), and the Gaussian 82(TM) system (copyright 1983,
 Carnegie Mellon University). Gaussian is a federally registered
 trademark of Gaussian, Inc.
  
 This software contains proprietary and confidential information,
 including trade secrets, belonging to Gaussian, Inc.
  
 This software is provided under written license and may be
 used, copied, transmitted, or stored only in accord with that
 written license.
  
 The following legend is applicable only to US Government
 contracts under FAR:
  
                    RESTRICTED RIGHTS LEGEND
  
 Use, reproduction and disclosure by the US Government is
 subject to restrictions as set forth in subparagraphs (a)
 and (c) of the Commercial Computer Software - Restricted
 Rights clause in FAR 52.227-19.
  
 Gaussian, Inc.
 340 Quinnipiac St., Bldg. 40, Wallingford CT 06492
  
  
 ---------------------------------------------------------------
 Warning -- This program may not be used in any manner that
 competes with the business of Gaussian, Inc. or will provide
 assistance to any competitor of Gaussian, Inc.  The licensee
 of this program is prohibited from giving any competitor of
 Gaussian, Inc. access to this program.  By using this program,
 the user acknowledges that Gaussian, Inc. is engaged in the
 business of creating and licensing software in the field of
 computational chemistry and represents and warrants to the
 licensee that it is not a competitor of Gaussian, Inc. and that
 it will not use this program in any manner prohibited above.
 ---------------------------------------------------------------
  

 Cite this work as:
 Gaussian 09, Revision D.01,
 M. J. Frisch, G. W. Trucks, H. B. Schlegel, G. E. Scuseria, 
 M. A. Robb, J. R. Cheeseman, G. Scalmani, V. Barone, B. Mennucci, 
 G. A. Petersson, H. Nakatsuji, M. Caricato, X. Li, H. P. Hratchian, 
 A. F. Izmaylov, J. Bloino, G. Zheng, J. L. Sonnenberg, M. Hada, 
 M. Ehara, K. Toyota, R. Fukuda, J. Hasegawa, M. Ishida, T. Nakajima, 
 Y. Honda, O. Kitao, H. Nakai, T. Vreven, J. A. Montgomery, Jr., 
 J. E. Peralta, F. Ogliaro, M. Bearpark, J. J. Heyd, E. Brothers, 
 K. N. Kudin, V. N. Staroverov, T. Keith, R. Kobayashi, J. Normand, 
 K. Raghavachari, A. Rendell, J. C. Burant, S. S. Iyengar, J. Tomasi, 
 M. Cossi, N. Rega, J. M. Millam, M. Klene, J. E. Knox, J. B. Cross, 
 V. Bakken, C. Adamo, J. Jaramillo, R. Gomperts, R. E. Stratmann, 
 O. Yazyev, A. J. Austin, R. Cammi, C. Pomelli, J. W. Ochterski, 
 R. L. Martin, K. Morokuma, V. G. Zakrzewski, G. A. Voth, 
 P. Salvador, J. J. Dannenberg, S. Dapprich, A. D. Daniels, 
 O. Farkas, J. B. Foresman, J. V. Ortiz, J. Cioslowski, 
 and D. J. Fox, Gaussian, Inc., Wallingford CT, 2013.
 
 ******************************************
 Gaussian 09:  ES64L-G09RevD.01 24-Apr-2013
                19-Dec-2018 
 ******************************************
 ----------------------------------------------------------------------
 #wb97xd/genecp opt=(modredundant,maxcyc=1000) scrf=(pcm,solvent=2-prop
 anol)
 ----------------------------------------------------------------------
 1/6=1000,14=-1,18=120,19=15,26=3,38=1/1,3;
 2/9=110,12=2,17=6,18=5,40=1/2;
 3/5=7,11=2,16=1,17=8,25=1,30=1,70=2201,71=1,72=73,74=-58/1,2,3;
 4//1;
 5/5=2,38=5,53=73/2;
 6/7=2,8=2,9=2,10=2,28=1/1;
 7//1,2,3,16;
 1/6=1000,14=-1,18=20,19=15,26=3/3(2);
 2/9=110/2;
 99//99;
 2/9=110/2;
 3/5=7,6=1,11=2,16=1,17=8,25=1,30=1,70=2205,71=1,72=73,74=-58,82=7/1,2,3;
 4/5=5,16=3,69=1/1;
 5/5=2,38=5,53=73/2;
 7//1,2,3,16;
 1/6=1000,14=-1,18=20,19=15,26=3/3(-5);
 2/9=110/2;
 6/7=2,8=2,9=2,10=2,19=2,28=1/1;
 99/9=1/99;
 --------------------------
 step 2 (attempt 1) cycle 1
 --------------------------
 Symbolic Z-matrix:
 Charge =  0 Multiplicity = 1
 H                    -1.32055  -0.75903  -4.97017 
 C                    -0.8373   -0.67491  -3.98718 
 C                    -1.94732  -0.44747  -2.96881 
 O                    -2.60365   0.62315  -3.03596 
 C                    -2.71133  -1.71282  -2.60854 
 H                    -0.27892  -1.59627  -3.81259 
 H                    -0.1442    0.16921  -4.0166 
 H                    -0.87528  -0.29689  -1.62782 
 H                    -0.64154   0.77071   1.63835 
 N                    -2.22027   1.67036  -0.35156 
 N                    -2.41708  -0.87753   0.60051 
 C                    -3.38272   1.38551   0.51399 
 H                    -1.96741   2.65271  -0.26188 
 H                    -2.47077   1.5104   -1.33734 
 C                    -3.6719   -0.11908   0.39143 
 H                    -2.48854  -1.76419   0.10163 
 H                    -2.32916  -1.12467   1.58359 
 C                    -4.6236    2.16067   0.04178 
 H                    -3.1797    1.65524   1.52934 
 H                    -4.05898  -0.33036  -0.58347 
 C                    -4.74689  -0.5468    1.40091 
 C                    -2.08675  -2.8733   -2.13482 
 C                    -4.10575  -1.71082  -2.78773 
 C                    -4.22898  -4.00414  -2.02014 
 C                    -4.86013  -2.84767  -2.49399 
 C                    -2.84246  -4.01427  -1.84293 
 H                    -1.00685  -2.88617  -1.99426 
 H                    -2.3477   -4.91348  -1.48454 
 H                    -4.81472  -4.89186  -1.79735 
 H                    -5.93727  -2.83945  -2.64397 
 H                    -4.58073  -0.80271  -3.16916 
 C                    -4.97841   2.17677  -1.31568 
 C                    -5.40898   2.84807   0.97572 
 C                    -6.89023   3.57469  -0.79979 
 C                    -6.54031   3.55398   0.5535 
 C                    -6.10756   2.88477  -1.7324 
 H                    -4.36661   1.63608  -2.05848 
 H                    -6.37679   2.89733  -2.78774 
 H                    -7.76964   4.12483  -1.12749 
 H                    -7.14914   4.08599   1.28156 
 H                    -5.14923   2.82983   2.03234 
 C                    -4.59702  -0.31196   2.77499 
 C                    -5.89762  -1.19647   0.93165 
 C                    -6.73845  -1.36543   3.1985 
 C                    -6.88966  -1.60279   1.82868 
 C                    -5.59067  -0.72      3.66945 
 H                    -3.70848   0.19349   3.15041 
 H                    -5.47188  -0.53112   4.73468 
 H                    -7.51284  -1.67966   3.89533 
 H                    -7.783    -2.10293   1.45758 
 H                    -6.02303  -1.38403  -0.13628 
 Ru                   -0.62191   0.26814   0.06452 
 P                     1.07205   1.71869  -0.34745 
 P                     0.81151  -1.37184   0.70896 
 C                     0.55526   3.145    -1.41523 
 C                     1.97994   2.59379   1.00651 
 C                     2.4926    0.93221  -1.24347 
 C                    -0.11584  -2.48269   1.86384 
 C                     1.60408  -2.58882  -0.43067 
 C                     2.341    -0.8059    1.59984 
 C                     3.33578   0.04627  -0.58629 
 C                     2.60045   1.09163  -2.65079 
 C                     3.33694  -0.12514   0.90812 
 C                     2.46312  -0.97926   3.00323 
 C                     4.28462  -0.72389  -1.34298 
 C                     3.51379   0.38421  -3.38194 
 H                     1.94937   1.7938   -3.16019 
 C                     4.45682   0.42048   1.62607 
 C                     3.50924  -0.44591   3.70435 
 H                     1.71903  -1.55347   3.54106 
 C                     4.37499  -0.54687  -2.75091 
 C                     5.13058  -1.6949   -0.73828 
 H                     3.58576   0.52763  -4.45722 
 C                     4.52546   0.28009   3.03897 
 C                     5.51015   1.12556   0.97778 
 H                     3.57546  -0.58565   4.78041 
 C                     5.30218  -1.31658  -3.50131 
 C                     6.01244  -2.43204  -1.488 
 H                     5.06355  -1.86999   0.32991 
 C                     5.61174   0.8506    3.755 
 C                     6.55752   1.65159   1.69023 
 H                     5.47918   1.26388  -0.09684 
 C                     6.10652  -2.24058  -2.88574 
 H                     5.35443  -1.16301  -4.57638 
 H                     6.63929  -3.17577  -1.00421 
 C                     6.61007   1.52076   3.09726 
 H                     5.6368    0.73814   4.83603 
 H                     7.34699   2.18698   1.17049 
 H                     6.81024  -2.83022  -3.46624 
 H                     7.43996   1.95142   3.65012 
 C                     0.82744   4.48948  -1.13825 
 C                    -0.25736   2.85102  -2.51851 
 C                     0.32389   5.50137  -1.95561 
 H                     1.42639   4.76771  -0.2786 
 C                    -0.75232   3.85682  -3.34145 
 H                    -0.53079   1.82144  -2.71815 
 C                    -0.46011   5.19061  -3.06285 
 H                     0.54641   6.53809  -1.71862 
 H                    -1.37864   3.59473  -4.18971 
 H                    -0.85051   5.98165  -3.69692 
 C                     3.14155   3.31828   0.70808 
 C                     1.54835   2.54133   2.3329 
 C                     3.85126   3.97307   1.70883 
 H                     3.50559   3.36279  -0.31548 
 C                     2.26924   3.17905   3.34133 
 H                     0.65677   1.97347   2.5794 
 C                     3.4224    3.89544   3.03272 
 H                     4.7524    4.525     1.45765 
 H                     1.92962   3.10901   4.37111 
 H                     3.98664   4.38925   3.81887 
 C                    -0.54683  -3.74827   1.44868 
 C                    -0.64383  -1.96605   3.05866 
 C                    -1.46403  -4.47735   2.20507 
 H                    -0.19285  -4.16672   0.51248 
 C                    -1.54169  -2.70268   3.82536 
 H                    -0.38472  -0.96029   3.37605 
 C                    -1.95775  -3.96357   3.39945 
 H                    -1.78959  -5.45264   1.85394 
 H                    -1.93165  -2.28048   4.74724 
 H                    -2.67024  -4.53306   3.98918 
 C                     2.33984  -3.67519   0.06065 
 C                     1.54474  -2.38323  -1.80618 
 C                     2.97321  -4.55113  -0.81434 
 H                     2.4182   -3.8402    1.13279 
 C                     2.18627  -3.25197  -2.68724 
 H                     1.01491  -1.51377  -2.18064 
 C                     2.89822  -4.34014  -2.19222 
 H                     3.538    -5.39223  -0.42206 
 H                     2.14147  -3.06592  -3.75679 
 H                     3.40448  -5.01737  -2.87435 
 
 Add virtual bond connecting atoms H8         and C3         Dist= 3.26D+00.
 The following ModRedundant input section has been read:
 B       8      52 F                                                           
 B       3       8 F                                                           
 B       3       4 F                                                           
 

 GradGradGradGradGradGradGradGradGradGradGradGradGradGradGradGradGradGrad
 Berny optimization.
 Initialization pass.
                           ----------------------------
                           !    Initial Parameters    !
                           ! (Angstroms and Degrees)  !
 --------------------------                            --------------------------
 ! Name  Definition              Value          Derivative Info.                !
 --------------------------------------------------------------------------------
 ! R1    R(1,2)                  1.0986         estimate D2E/DX2                !
 ! R2    R(2,3)                  1.5235         estimate D2E/DX2                !
 ! R3    R(2,6)                  1.0914         estimate D2E/DX2                !
 ! R4    R(2,7)                  1.0926         estimate D2E/DX2                !
 ! R5    R(3,4)                  1.2576         Frozen                          !
 ! R6    R(3,5)                  1.5214         estimate D2E/DX2                !
 ! R7    R(3,8)                  1.7234         Frozen                          !
 ! R8    R(5,22)                 1.4004         estimate D2E/DX2                !
 ! R9    R(5,23)                 1.4059         estimate D2E/DX2                !
 ! R10   R(8,52)                 1.8021         Frozen                          !
 ! R11   R(9,52)                 1.6522         estimate D2E/DX2                !
 ! R12   R(10,12)                1.477          estimate D2E/DX2                !
 ! R13   R(10,13)                1.0183         estimate D2E/DX2                !
 ! R14   R(10,14)                1.0296         estimate D2E/DX2                !
 ! R15   R(10,52)                2.1666         estimate D2E/DX2                !
 ! R16   R(11,15)                1.4811         estimate D2E/DX2                !
 ! R17   R(11,16)                1.0199         estimate D2E/DX2                !
 ! R18   R(11,17)                1.0175         estimate D2E/DX2                !
 ! R19   R(11,52)                2.196          estimate D2E/DX2                !
 ! R20   R(12,15)                1.537          estimate D2E/DX2                !
 ! R21   R(12,18)                1.5374         estimate D2E/DX2                !
 ! R22   R(12,19)                1.07           estimate D2E/DX2                !
 ! R23   R(15,20)                1.07           estimate D2E/DX2                !
 ! R24   R(15,21)                1.5354         estimate D2E/DX2                !
 ! R25   R(18,32)                1.4032         estimate D2E/DX2                !
 ! R26   R(18,33)                1.4006         estimate D2E/DX2                !
 ! R27   R(21,42)                1.402          estimate D2E/DX2                !
 ! R28   R(21,43)                1.4023         estimate D2E/DX2                !
 ! R29   R(22,26)                1.3993         estimate D2E/DX2                !
 ! R30   R(22,27)                1.0891         estimate D2E/DX2                !
 ! R31   R(23,25)                1.3956         estimate D2E/DX2                !
 ! R32   R(23,31)                1.0935         estimate D2E/DX2                !
 ! R33   R(24,25)                1.4001         estimate D2E/DX2                !
 ! R34   R(24,26)                1.3978         estimate D2E/DX2                !
 ! R35   R(24,29)                1.0866         estimate D2E/DX2                !
 ! R36   R(25,30)                1.0876         estimate D2E/DX2                !
 ! R37   R(26,28)                1.0871         estimate D2E/DX2                !
 ! R38   R(32,36)                1.3964         estimate D2E/DX2                !
 ! R39   R(32,37)                1.1038         estimate D2E/DX2                !
 ! R40   R(33,35)                1.3987         estimate D2E/DX2                !
 ! R41   R(33,41)                1.0882         estimate D2E/DX2                !
 ! R42   R(34,35)                1.398          estimate D2E/DX2                !
 ! R43   R(34,36)                1.3994         estimate D2E/DX2                !
 ! R44   R(34,39)                1.0878         estimate D2E/DX2                !
 ! R45   R(35,40)                1.088          estimate D2E/DX2                !
 ! R46   R(36,38)                1.0892         estimate D2E/DX2                !
 ! R47   R(42,46)                1.3978         estimate D2E/DX2                !
 ! R48   R(42,47)                1.089          estimate D2E/DX2                !
 ! R49   R(43,45)                1.3978         estimate D2E/DX2                !
 ! R50   R(43,51)                1.0915         estimate D2E/DX2                !
 ! R51   R(44,45)                1.3984         estimate D2E/DX2                !
 ! R52   R(44,46)                1.3985         estimate D2E/DX2                !
 ! R53   R(44,49)                1.0881         estimate D2E/DX2                !
 ! R54   R(45,50)                1.089          estimate D2E/DX2                !
 ! R55   R(46,48)                1.0884         estimate D2E/DX2                !
 ! R56   R(52,53)                2.2679         estimate D2E/DX2                !
 ! R57   R(52,54)                2.2715         estimate D2E/DX2                !
 ! R58   R(53,55)                1.8552         estimate D2E/DX2                !
 ! R59   R(53,56)                1.8502         estimate D2E/DX2                !
 ! R60   R(53,57)                1.8546         estimate D2E/DX2                !
 ! R61   R(54,58)                1.8514         estimate D2E/DX2                !
 ! R62   R(54,59)                1.8461         estimate D2E/DX2                !
 ! R63   R(54,60)                1.8583         estimate D2E/DX2                !
 ! R64   R(55,91)                1.3994         estimate D2E/DX2                !
 ! R65   R(55,92)                1.4014         estimate D2E/DX2                !
 ! R66   R(56,101)               1.4012         estimate D2E/DX2                !
 ! R67   R(56,102)               1.3958         estimate D2E/DX2                !
 ! R68   R(57,61)                1.3884         estimate D2E/DX2                !
 ! R69   R(57,62)                1.4204         estimate D2E/DX2                !
 ! R70   R(58,111)               1.3999         estimate D2E/DX2                !
 ! R71   R(58,112)               1.4047         estimate D2E/DX2                !
 ! R72   R(59,121)               1.401          estimate D2E/DX2                !
 ! R73   R(59,122)               1.3921         estimate D2E/DX2                !
 ! R74   R(60,63)                1.3906         estimate D2E/DX2                !
 ! R75   R(60,64)                1.4193         estimate D2E/DX2                !
 ! R76   R(61,63)                1.5042         estimate D2E/DX2                !
 ! R77   R(61,65)                1.4374         estimate D2E/DX2                !
 ! R78   R(62,66)                1.3672         estimate D2E/DX2                !
 ! R79   R(62,67)                1.0846         estimate D2E/DX2                !
 ! R80   R(63,68)                1.4378         estimate D2E/DX2                !
 ! R81   R(64,69)                1.3676         estimate D2E/DX2                !
 ! R82   R(64,70)                1.0829         estimate D2E/DX2                !
 ! R83   R(65,71)                1.4219         estimate D2E/DX2                !
 ! R84   R(65,72)                1.4227         estimate D2E/DX2                !
 ! R85   R(66,71)                1.4166         estimate D2E/DX2                !
 ! R86   R(66,73)                1.0872         estimate D2E/DX2                !
 ! R87   R(68,74)                1.4215         estimate D2E/DX2                !
 ! R88   R(68,75)                1.4237         estimate D2E/DX2                !
 ! R89   R(69,74)                1.4151         estimate D2E/DX2                !
 ! R90   R(69,76)                1.0871         estimate D2E/DX2                !
 ! R91   R(71,77)                1.4196         estimate D2E/DX2                !
 ! R92   R(72,78)                1.3723         estimate D2E/DX2                !
 ! R93   R(72,79)                1.0845         estimate D2E/DX2                !
 ! R94   R(74,80)                1.4206         estimate D2E/DX2                !
 ! R95   R(75,81)                1.3716         estimate D2E/DX2                !
 ! R96   R(75,82)                1.0839         estimate D2E/DX2                !
 ! R97   R(77,83)                1.371          estimate D2E/DX2                !
 ! R98   R(77,84)                1.0872         estimate D2E/DX2                !
 ! R99   R(78,83)                1.4139         estimate D2E/DX2                !
 ! R100  R(78,85)                1.0863         estimate D2E/DX2                !
 ! R101  R(80,86)                1.3705         estimate D2E/DX2                !
 ! R102  R(80,87)                1.0872         estimate D2E/DX2                !
 ! R103  R(81,86)                1.4141         estimate D2E/DX2                !
 ! R104  R(81,88)                1.0863         estimate D2E/DX2                !
 ! R105  R(83,89)                1.0862         estimate D2E/DX2                !
 ! R106  R(86,90)                1.0862         estimate D2E/DX2                !
 ! R107  R(91,93)                1.3948         estimate D2E/DX2                !
 ! R108  R(91,94)                1.084          estimate D2E/DX2                !
 ! R109  R(92,95)                1.3906         estimate D2E/DX2                !
 ! R110  R(92,96)                1.0838         estimate D2E/DX2                !
 ! R111  R(93,97)                1.3918         estimate D2E/DX2                !
 ! R112  R(93,98)                1.0865         estimate D2E/DX2                !
 ! R113  R(95,97)                1.3936         estimate D2E/DX2                !
 ! R114  R(95,99)                1.0865         estimate D2E/DX2                !
 ! R115  R(97,100)               1.0864         estimate D2E/DX2                !
 ! R116  R(101,103)              1.3907         estimate D2E/DX2                !
 ! R117  R(101,104)              1.0873         estimate D2E/DX2                !
 ! R118  R(102,105)              1.394          estimate D2E/DX2                !
 ! R119  R(102,106)              1.0854         estimate D2E/DX2                !
 ! R120  R(103,107)              1.3938         estimate D2E/DX2                !
 ! R121  R(103,108)              1.0862         estimate D2E/DX2                !
 ! R122  R(105,107)              1.3922         estimate D2E/DX2                !
 ! R123  R(105,109)              1.0866         estimate D2E/DX2                !
 ! R124  R(107,110)              1.0864         estimate D2E/DX2                !
 ! R125  R(111,113)              1.3946         estimate D2E/DX2                !
 ! R126  R(111,114)              1.0848         estimate D2E/DX2                !
 ! R127  R(112,115)              1.3916         estimate D2E/DX2                !
 ! R128  R(112,116)              1.086          estimate D2E/DX2                !
 ! R129  R(113,117)              1.3908         estimate D2E/DX2                !
 ! R130  R(113,118)              1.0865         estimate D2E/DX2                !
 ! R131  R(115,117)              1.3944         estimate D2E/DX2                !
 ! R132  R(115,119)              1.0864         estimate D2E/DX2                !
 ! R133  R(117,120)              1.0862         estimate D2E/DX2                !
 ! R134  R(121,123)              1.3907         estimate D2E/DX2                !
 ! R135  R(121,124)              1.0876         estimate D2E/DX2                !
 ! R136  R(122,125)              1.3937         estimate D2E/DX2                !
 ! R137  R(122,126)              1.0849         estimate D2E/DX2                !
 ! R138  R(123,127)              1.396          estimate D2E/DX2                !
 ! R139  R(123,128)              1.0864         estimate D2E/DX2                !
 ! R140  R(125,127)              1.3914         estimate D2E/DX2                !
 ! R141  R(125,129)              1.0865         estimate D2E/DX2                !
 ! R142  R(127,130)              1.0864         estimate D2E/DX2                !
 ! A1    A(1,2,3)              106.8007         estimate D2E/DX2                !
 ! A2    A(1,2,6)              107.6705         estimate D2E/DX2                !
 ! A3    A(1,2,7)              108.3069         estimate D2E/DX2                !
 ! A4    A(3,2,6)              113.0706         estimate D2E/DX2                !
 ! A5    A(3,2,7)              111.3995         estimate D2E/DX2                !
 ! A6    A(6,2,7)              109.3882         estimate D2E/DX2                !
 ! A7    A(2,3,4)              118.1423         estimate D2E/DX2                !
 ! A8    A(2,3,5)              113.58           estimate D2E/DX2                !
 ! A9    A(2,3,8)               94.5848         estimate D2E/DX2                !
 ! A10   A(4,3,5)              117.2979         estimate D2E/DX2                !
 ! A11   A(4,3,8)              106.966          estimate D2E/DX2                !
 ! A12   A(5,3,8)              101.5832         estimate D2E/DX2                !
 ! A13   A(3,5,22)             123.0471         estimate D2E/DX2                !
 ! A14   A(3,5,23)             117.8217         estimate D2E/DX2                !
 ! A15   A(22,5,23)            119.1205         estimate D2E/DX2                !
 ! A16   A(3,8,52)             147.7329         estimate D2E/DX2                !
 ! A17   A(12,10,13)           109.2601         estimate D2E/DX2                !
 ! A18   A(12,10,14)           109.8539         estimate D2E/DX2                !
 ! A19   A(12,10,52)           110.0753         estimate D2E/DX2                !
 ! A20   A(13,10,14)           107.1336         estimate D2E/DX2                !
 ! A21   A(13,10,52)           115.1025         estimate D2E/DX2                !
 ! A22   A(14,10,52)           105.2366         estimate D2E/DX2                !
 ! A23   A(15,11,16)           108.4687         estimate D2E/DX2                !
 ! A24   A(15,11,17)           109.5115         estimate D2E/DX2                !
 ! A25   A(15,11,52)           113.0153         estimate D2E/DX2                !
 ! A26   A(16,11,17)           105.5158         estimate D2E/DX2                !
 ! A27   A(16,11,52)           113.0444         estimate D2E/DX2                !
 ! A28   A(17,11,52)           106.9722         estimate D2E/DX2                !
 ! A29   A(10,12,15)           106.8656         estimate D2E/DX2                !
 ! A30   A(10,12,18)           110.9772         estimate D2E/DX2                !
 ! A31   A(10,12,19)           110.9858         estimate D2E/DX2                !
 ! A32   A(15,12,18)           108.4943         estimate D2E/DX2                !
 ! A33   A(15,12,19)           110.9854         estimate D2E/DX2                !
 ! A34   A(18,12,19)           108.5117         estimate D2E/DX2                !
 ! A35   A(11,15,12)           109.3071         estimate D2E/DX2                !
 ! A36   A(11,15,20)           109.5121         estimate D2E/DX2                !
 ! A37   A(11,15,21)           110.9593         estimate D2E/DX2                !
 ! A38   A(12,15,20)           109.5121         estimate D2E/DX2                !
 ! A39   A(12,15,21)           110.6085         estimate D2E/DX2                !
 ! A40   A(20,15,21)           106.9024         estimate D2E/DX2                !
 ! A41   A(12,18,32)           120.4656         estimate D2E/DX2                !
 ! A42   A(12,18,33)           119.6861         estimate D2E/DX2                !
 ! A43   A(32,18,33)           119.8471         estimate D2E/DX2                !
 ! A44   A(15,21,42)           121.5237         estimate D2E/DX2                !
 ! A45   A(15,21,43)           118.9184         estimate D2E/DX2                !
 ! A46   A(42,21,43)           119.5558         estimate D2E/DX2                !
 ! A47   A(5,22,26)            120.355          estimate D2E/DX2                !
 ! A48   A(5,22,27)            119.7146         estimate D2E/DX2                !
 ! A49   A(26,22,27)           119.9304         estimate D2E/DX2                !
 ! A50   A(5,23,25)            120.5395         estimate D2E/DX2                !
 ! A51   A(5,23,31)            118.4543         estimate D2E/DX2                !
 ! A52   A(25,23,31)           121.0043         estimate D2E/DX2                !
 ! A53   A(25,24,26)           119.7377         estimate D2E/DX2                !
 ! A54   A(25,24,29)           120.0786         estimate D2E/DX2                !
 ! A55   A(26,24,29)           120.1826         estimate D2E/DX2                !
 ! A56   A(23,25,24)           120.0264         estimate D2E/DX2                !
 ! A57   A(23,25,30)           120.011          estimate D2E/DX2                !
 ! A58   A(24,25,30)           119.9589         estimate D2E/DX2                !
 ! A59   A(22,26,24)           120.2205         estimate D2E/DX2                !
 ! A60   A(22,26,28)           119.8291         estimate D2E/DX2                !
 ! A61   A(24,26,28)           119.9487         estimate D2E/DX2                !
 ! A62   A(18,32,36)           119.9337         estimate D2E/DX2                !
 ! A63   A(18,32,37)           120.3476         estimate D2E/DX2                !
 ! A64   A(36,32,37)           119.7181         estimate D2E/DX2                !
 ! A65   A(18,33,35)           119.9974         estimate D2E/DX2                !
 ! A66   A(18,33,41)           120.357          estimate D2E/DX2                !
 ! A67   A(35,33,41)           119.6435         estimate D2E/DX2                !
 ! A68   A(35,34,36)           119.8579         estimate D2E/DX2                !
 ! A69   A(35,34,39)           120.0962         estimate D2E/DX2                !
 ! A70   A(36,34,39)           120.0458         estimate D2E/DX2                !
 ! A71   A(33,35,34)           120.1417         estimate D2E/DX2                !
 ! A72   A(33,35,40)           119.8267         estimate D2E/DX2                !
 ! A73   A(34,35,40)           120.0315         estimate D2E/DX2                !
 ! A74   A(32,36,34)           120.221          estimate D2E/DX2                !
 ! A75   A(32,36,38)           119.661          estimate D2E/DX2                !
 ! A76   A(34,36,38)           120.1181         estimate D2E/DX2                !
 ! A77   A(21,42,46)           120.1499         estimate D2E/DX2                !
 ! A78   A(21,42,47)           120.1867         estimate D2E/DX2                !
 ! A79   A(46,42,47)           119.6628         estimate D2E/DX2                !
 ! A80   A(21,43,45)           120.1531         estimate D2E/DX2                !
 ! A81   A(21,43,51)           120.0862         estimate D2E/DX2                !
 ! A82   A(45,43,51)           119.7605         estimate D2E/DX2                !
 ! A83   A(45,44,46)           119.7982         estimate D2E/DX2                !
 ! A84   A(45,44,49)           120.0882         estimate D2E/DX2                !
 ! A85   A(46,44,49)           120.1134         estimate D2E/DX2                !
 ! A86   A(43,45,44)           120.167          estimate D2E/DX2                !
 ! A87   A(43,45,50)           119.8024         estimate D2E/DX2                !
 ! A88   A(44,45,50)           120.0304         estimate D2E/DX2                !
 ! A89   A(42,46,44)           120.1757         estimate D2E/DX2                !
 ! A90   A(42,46,48)           119.8719         estimate D2E/DX2                !
 ! A91   A(44,46,48)           119.9519         estimate D2E/DX2                !
 ! A92   A(8,52,10)             85.3455         estimate D2E/DX2                !
 ! A93   A(8,52,11)             87.1742         estimate D2E/DX2                !
 ! A94   A(8,52,53)             97.7569         estimate D2E/DX2                !
 ! A95   A(8,52,54)             97.3994         estimate D2E/DX2                !
 ! A96   A(9,52,10)             88.6994         estimate D2E/DX2                !
 ! A97   A(9,52,11)             85.2094         estimate D2E/DX2                !
 ! A98   A(9,52,53)             89.2755         estimate D2E/DX2                !
 ! A99   A(9,52,54)             87.5276         estimate D2E/DX2                !
 ! A100  A(10,52,11)            77.3761         estimate D2E/DX2                !
 ! A101  A(10,52,53)            95.8657         estimate D2E/DX2                !
 ! A102  A(11,52,54)            94.0114         estimate D2E/DX2                !
 ! A103  A(53,52,54)            92.4054         estimate D2E/DX2                !
 ! A104  A(52,53,55)           112.8446         estimate D2E/DX2                !
 ! A105  A(52,53,56)           122.4186         estimate D2E/DX2                !
 ! A106  A(52,53,57)           112.871          estimate D2E/DX2                !
 ! A107  A(55,53,56)           101.2011         estimate D2E/DX2                !
 ! A108  A(55,53,57)           105.1497         estimate D2E/DX2                !
 ! A109  A(56,53,57)           100.2694         estimate D2E/DX2                !
 ! A110  A(52,54,58)           107.1026         estimate D2E/DX2                !
 ! A111  A(52,54,59)           124.8721         estimate D2E/DX2                !
 ! A112  A(52,54,60)           115.8189         estimate D2E/DX2                !
 ! A113  A(58,54,59)           101.8053         estimate D2E/DX2                !
 ! A114  A(58,54,60)           107.2141         estimate D2E/DX2                !
 ! A115  A(59,54,60)            98.242          estimate D2E/DX2                !
 ! A116  A(53,55,91)           124.7883         estimate D2E/DX2                !
 ! A117  A(53,55,92)           116.9603         estimate D2E/DX2                !
 ! A118  A(91,55,92)           118.0424         estimate D2E/DX2                !
 ! A119  A(53,56,101)          119.7024         estimate D2E/DX2                !
 ! A120  A(53,56,102)          121.7278         estimate D2E/DX2                !
 ! A121  A(101,56,102)         118.5652         estimate D2E/DX2                !
 ! A122  A(53,57,61)           120.4701         estimate D2E/DX2                !
 ! A123  A(53,57,62)           119.2915         estimate D2E/DX2                !
 ! A124  A(61,57,62)           119.6346         estimate D2E/DX2                !
 ! A125  A(54,58,111)          120.7729         estimate D2E/DX2                !
 ! A126  A(54,58,112)          119.8784         estimate D2E/DX2                !
 ! A127  A(111,58,112)         117.9706         estimate D2E/DX2                !
 ! A128  A(54,59,121)          121.3417         estimate D2E/DX2                !
 ! A129  A(54,59,122)          119.6256         estimate D2E/DX2                !
 ! A130  A(121,59,122)         118.9087         estimate D2E/DX2                !
 ! A131  A(54,60,63)           120.0056         estimate D2E/DX2                !
 ! A132  A(54,60,64)           120.5069         estimate D2E/DX2                !
 ! A133  A(63,60,64)           119.3412         estimate D2E/DX2                !
 ! A134  A(57,61,63)           122.9171         estimate D2E/DX2                !
 ! A135  A(57,61,65)           119.5778         estimate D2E/DX2                !
 ! A136  A(63,61,65)           117.4804         estimate D2E/DX2                !
 ! A137  A(57,62,66)           121.5001         estimate D2E/DX2                !
 ! A138  A(57,62,67)           119.4984         estimate D2E/DX2                !
 ! A139  A(66,62,67)           119.0005         estimate D2E/DX2                !
 ! A140  A(60,63,61)           123.3267         estimate D2E/DX2                !
 ! A141  A(60,63,68)           119.6839         estimate D2E/DX2                !
 ! A142  A(61,63,68)           116.9647         estimate D2E/DX2                !
 ! A143  A(60,64,69)           121.6738         estimate D2E/DX2                !
 ! A144  A(60,64,70)           119.7841         estimate D2E/DX2                !
 ! A145  A(69,64,70)           118.5402         estimate D2E/DX2                !
 ! A146  A(61,65,71)           119.7701         estimate D2E/DX2                !
 ! A147  A(61,65,72)           122.3066         estimate D2E/DX2                !
 ! A148  A(71,65,72)           117.9066         estimate D2E/DX2                !
 ! A149  A(62,66,71)           120.5298         estimate D2E/DX2                !
 ! A150  A(62,66,73)           120.3241         estimate D2E/DX2                !
 ! A151  A(71,66,73)           119.1458         estimate D2E/DX2                !
 ! A152  A(63,68,74)           119.7649         estimate D2E/DX2                !
 ! A153  A(63,68,75)           122.4673         estimate D2E/DX2                !
 ! A154  A(74,68,75)           117.7608         estimate D2E/DX2                !
 ! A155  A(64,69,74)           120.5528         estimate D2E/DX2                !
 ! A156  A(64,69,76)           120.2588         estimate D2E/DX2                !
 ! A157  A(74,69,76)           119.1844         estimate D2E/DX2                !
 ! A158  A(65,71,66)           118.9645         estimate D2E/DX2                !
 ! A159  A(65,71,77)           119.8296         estimate D2E/DX2                !
 ! A160  A(66,71,77)           121.196          estimate D2E/DX2                !
 ! A161  A(65,72,78)           121.0988         estimate D2E/DX2                !
 ! A162  A(65,72,79)           119.4763         estimate D2E/DX2                !
 ! A163  A(78,72,79)           119.4132         estimate D2E/DX2                !
 ! A164  A(68,74,69)           118.9039         estimate D2E/DX2                !
 ! A165  A(68,74,80)           119.8829         estimate D2E/DX2                !
 ! A166  A(69,74,80)           121.2084         estimate D2E/DX2                !
 ! A167  A(68,75,81)           121.2231         estimate D2E/DX2                !
 ! A168  A(68,75,82)           119.5712         estimate D2E/DX2                !
 ! A169  A(81,75,82)           119.1993         estimate D2E/DX2                !
 ! A170  A(71,77,83)           120.7483         estimate D2E/DX2                !
 ! A171  A(71,77,84)           118.5216         estimate D2E/DX2                !
 ! A172  A(83,77,84)           120.7282         estimate D2E/DX2                !
 ! A173  A(72,78,83)           120.6706         estimate D2E/DX2                !
 ! A174  A(72,78,85)           119.6874         estimate D2E/DX2                !
 ! A175  A(83,78,85)           119.6403         estimate D2E/DX2                !
 ! A176  A(74,80,86)           120.7613         estimate D2E/DX2                !
 ! A177  A(74,80,87)           118.5072         estimate D2E/DX2                !
 ! A178  A(86,80,87)           120.7304         estimate D2E/DX2                !
 ! A179  A(75,81,86)           120.6464         estimate D2E/DX2                !
 ! A180  A(75,81,88)           119.6999         estimate D2E/DX2                !
 ! A181  A(86,81,88)           119.6473         estimate D2E/DX2                !
 ! A182  A(77,83,78)           119.7407         estimate D2E/DX2                !
 ! A183  A(77,83,89)           120.3966         estimate D2E/DX2                !
 ! A184  A(78,83,89)           119.8615         estimate D2E/DX2                !
 ! A185  A(80,86,81)           119.7152         estimate D2E/DX2                !
 ! A186  A(80,86,90)           120.4066         estimate D2E/DX2                !
 ! A187  A(81,86,90)           119.8782         estimate D2E/DX2                !
 ! A188  A(55,91,93)           120.7152         estimate D2E/DX2                !
 ! A189  A(55,91,94)           120.73           estimate D2E/DX2                !
 ! A190  A(93,91,94)           118.5523         estimate D2E/DX2                !
 ! A191  A(55,92,95)           121.3684         estimate D2E/DX2                !
 ! A192  A(55,92,96)           119.3784         estimate D2E/DX2                !
 ! A193  A(95,92,96)           119.2274         estimate D2E/DX2                !
 ! A194  A(91,93,97)           120.5006         estimate D2E/DX2                !
 ! A195  A(91,93,98)           119.3712         estimate D2E/DX2                !
 ! A196  A(97,93,98)           120.1279         estimate D2E/DX2                !
 ! A197  A(92,95,97)           119.9543         estimate D2E/DX2                !
 ! A198  A(92,95,99)           119.5191         estimate D2E/DX2                !
 ! A199  A(97,95,99)           120.5194         estimate D2E/DX2                !
 ! A200  A(93,97,95)           119.3966         estimate D2E/DX2                !
 ! A201  A(93,97,100)          120.2757         estimate D2E/DX2                !
 ! A202  A(95,97,100)          120.3235         estimate D2E/DX2                !
 ! A203  A(56,101,103)         120.8821         estimate D2E/DX2                !
 ! A204  A(56,101,104)         119.9499         estimate D2E/DX2                !
 ! A205  A(103,101,104)        119.1634         estimate D2E/DX2                !
 ! A206  A(56,102,105)         120.6851         estimate D2E/DX2                !
 ! A207  A(56,102,106)         119.3042         estimate D2E/DX2                !
 ! A208  A(105,102,106)        119.9885         estimate D2E/DX2                !
 ! A209  A(101,103,107)        120.0186         estimate D2E/DX2                !
 ! A210  A(101,103,108)        119.7519         estimate D2E/DX2                !
 ! A211  A(107,103,108)        120.2143         estimate D2E/DX2                !
 ! A212  A(102,105,107)        120.224          estimate D2E/DX2                !
 ! A213  A(102,105,109)        119.6336         estimate D2E/DX2                !
 ! A214  A(107,105,109)        120.1413         estimate D2E/DX2                !
 ! A215  A(103,107,105)        119.6089         estimate D2E/DX2                !
 ! A216  A(103,107,110)        120.1471         estimate D2E/DX2                !
 ! A217  A(105,107,110)        120.2438         estimate D2E/DX2                !
 ! A218  A(58,111,113)         120.9469         estimate D2E/DX2                !
 ! A219  A(58,111,114)         120.2771         estimate D2E/DX2                !
 ! A220  A(113,111,114)        118.7506         estimate D2E/DX2                !
 ! A221  A(58,112,115)         121.0932         estimate D2E/DX2                !
 ! A222  A(58,112,116)         119.9676         estimate D2E/DX2                !
 ! A223  A(115,112,116)        118.8905         estimate D2E/DX2                !
 ! A224  A(111,113,117)        120.4057         estimate D2E/DX2                !
 ! A225  A(111,113,118)        119.4103         estimate D2E/DX2                !
 ! A226  A(117,113,118)        120.184          estimate D2E/DX2                !
 ! A227  A(112,115,117)        120.1908         estimate D2E/DX2                !
 ! A228  A(112,115,119)        119.5645         estimate D2E/DX2                !
 ! A229  A(117,115,119)        120.2329         estimate D2E/DX2                !
 ! A230  A(113,117,115)        119.3692         estimate D2E/DX2                !
 ! A231  A(113,117,120)        120.3613         estimate D2E/DX2                !
 ! A232  A(115,117,120)        120.2651         estimate D2E/DX2                !
 ! A233  A(59,121,123)         120.459          estimate D2E/DX2                !
 ! A234  A(59,121,124)         120.078          estimate D2E/DX2                !
 ! A235  A(123,121,124)        119.4629         estimate D2E/DX2                !
 ! A236  A(59,122,125)         120.8613         estimate D2E/DX2                !
 ! A237  A(59,122,126)         118.702          estimate D2E/DX2                !
 ! A238  A(125,122,126)        120.4082         estimate D2E/DX2                !
 ! A239  A(121,123,127)        120.0902         estimate D2E/DX2                !
 ! A240  A(121,123,128)        119.8158         estimate D2E/DX2                !
 ! A241  A(127,123,128)        120.0886         estimate D2E/DX2                !
 ! A242  A(122,125,127)        119.8735         estimate D2E/DX2                !
 ! A243  A(122,125,129)        119.7726         estimate D2E/DX2                !
 ! A244  A(127,125,129)        120.3458         estimate D2E/DX2                !
 ! A245  A(123,127,125)        119.7919         estimate D2E/DX2                !
 ! A246  A(123,127,130)        120.0334         estimate D2E/DX2                !
 ! A247  A(125,127,130)        120.1707         estimate D2E/DX2                !
 ! A248  L(8,52,9,10,-1)       174.0449         estimate D2E/DX2                !
 ! A249  L(10,52,54,8,-1)      182.7448         estimate D2E/DX2                !
 ! A250  L(11,52,53,8,-1)      184.9311         estimate D2E/DX2                !
 ! A251  L(8,52,9,10,-2)       173.5217         estimate D2E/DX2                !
 ! A252  L(10,52,54,8,-2)      188.7642         estimate D2E/DX2                !
 ! A253  L(11,52,53,8,-2)      172.8551         estimate D2E/DX2                !
 ! D1    D(1,2,3,4)            -65.6166         estimate D2E/DX2                !
 ! D2    D(1,2,3,5)             77.6052         estimate D2E/DX2                !
 ! D3    D(1,2,3,8)           -177.6337         estimate D2E/DX2                !
 ! D4    D(6,2,3,4)            176.1385         estimate D2E/DX2                !
 ! D5    D(6,2,3,5)            -40.6396         estimate D2E/DX2                !
 ! D6    D(6,2,3,8)             64.1214         estimate D2E/DX2                !
 ! D7    D(7,2,3,4)             52.4652         estimate D2E/DX2                !
 ! D8    D(7,2,3,5)           -164.313          estimate D2E/DX2                !
 ! D9    D(7,2,3,8)            -59.5519         estimate D2E/DX2                !
 ! D10   D(2,3,5,22)            54.9948         estimate D2E/DX2                !
 ! D11   D(2,3,5,23)          -123.8068         estimate D2E/DX2                !
 ! D12   D(4,3,5,22)          -161.4537         estimate D2E/DX2                !
 ! D13   D(4,3,5,23)            19.7447         estimate D2E/DX2                !
 ! D14   D(8,3,5,22)           -45.2872         estimate D2E/DX2                !
 ! D15   D(8,3,5,23)           135.9112         estimate D2E/DX2                !
 ! D16   D(2,3,8,52)           161.4543         estimate D2E/DX2                !
 ! D17   D(4,3,8,52)            40.1775         estimate D2E/DX2                !
 ! D18   D(5,3,8,52)           -83.3258         estimate D2E/DX2                !
 ! D19   D(3,5,22,26)         -178.8528         estimate D2E/DX2                !
 ! D20   D(3,5,22,27)            1.0965         estimate D2E/DX2                !
 ! D21   D(23,5,22,26)          -0.066          estimate D2E/DX2                !
 ! D22   D(23,5,22,27)         179.8832         estimate D2E/DX2                !
 ! D23   D(3,5,23,25)          179.054          estimate D2E/DX2                !
 ! D24   D(3,5,23,31)           -0.4496         estimate D2E/DX2                !
 ! D25   D(22,5,23,25)           0.2039         estimate D2E/DX2                !
 ! D26   D(22,5,23,31)        -179.2998         estimate D2E/DX2                !
 ! D27   D(3,8,52,10)          -24.767          estimate D2E/DX2                !
 ! D28   D(3,8,52,11)           52.7868         estimate D2E/DX2                !
 ! D29   D(3,8,52,53)         -120.0683         estimate D2E/DX2                !
 ! D30   D(3,8,52,54)          146.4687         estimate D2E/DX2                !
 ! D31   D(13,10,12,15)       -177.2076         estimate D2E/DX2                !
 ! D32   D(13,10,12,18)         64.6781         estimate D2E/DX2                !
 ! D33   D(13,10,12,19)        -56.0696         estimate D2E/DX2                !
 ! D34   D(14,10,12,15)         65.5372         estimate D2E/DX2                !
 ! D35   D(14,10,12,18)        -52.5771         estimate D2E/DX2                !
 ! D36   D(14,10,12,19)       -173.3248         estimate D2E/DX2                !
 ! D37   D(52,10,12,15)        -49.8955         estimate D2E/DX2                !
 ! D38   D(52,10,12,18)       -168.0098         estimate D2E/DX2                !
 ! D39   D(52,10,12,19)         71.2425         estimate D2E/DX2                !
 ! D40   D(12,10,52,8)         115.774          estimate D2E/DX2                !
 ! D41   D(12,10,52,9)         -57.7476         estimate D2E/DX2                !
 ! D42   D(12,10,52,11)         27.6339         estimate D2E/DX2                !
 ! D43   D(12,10,52,53)       -146.8855         estimate D2E/DX2                !
 ! D44   D(13,10,52,8)        -120.2367         estimate D2E/DX2                !
 ! D45   D(13,10,52,9)          66.2416         estimate D2E/DX2                !
 ! D46   D(13,10,52,11)        151.6231         estimate D2E/DX2                !
 ! D47   D(13,10,52,53)        -22.8963         estimate D2E/DX2                !
 ! D48   D(14,10,52,8)          -2.5404         estimate D2E/DX2                !
 ! D49   D(14,10,52,9)        -176.062          estimate D2E/DX2                !
 ! D50   D(14,10,52,11)        -90.6805         estimate D2E/DX2                !
 ! D51   D(14,10,52,53)         94.8001         estimate D2E/DX2                !
 ! D52   D(12,10,54,58)          6.8889         estimate D2E/DX2                !
 ! D53   D(12,10,54,59)        122.358          estimate D2E/DX2                !
 ! D54   D(12,10,54,60)       -110.6799         estimate D2E/DX2                !
 ! D55   D(13,10,54,58)        129.3085         estimate D2E/DX2                !
 ! D56   D(13,10,54,59)       -115.2224         estimate D2E/DX2                !
 ! D57   D(13,10,54,60)         11.7397         estimate D2E/DX2                !
 ! D58   D(14,10,54,58)       -109.9582         estimate D2E/DX2                !
 ! D59   D(14,10,54,59)          5.5109         estimate D2E/DX2                !
 ! D60   D(14,10,54,60)        132.473          estimate D2E/DX2                !
 ! D61   D(16,11,15,12)       -153.1263         estimate D2E/DX2                !
 ! D62   D(16,11,15,20)        -33.1517         estimate D2E/DX2                !
 ! D63   D(16,11,15,21)         84.6263         estimate D2E/DX2                !
 ! D64   D(17,11,15,12)         92.1931         estimate D2E/DX2                !
 ! D65   D(17,11,15,20)       -147.8323         estimate D2E/DX2                !
 ! D66   D(17,11,15,21)        -30.0543         estimate D2E/DX2                !
 ! D67   D(52,11,15,12)        -26.9504         estimate D2E/DX2                !
 ! D68   D(52,11,15,20)         93.0242         estimate D2E/DX2                !
 ! D69   D(52,11,15,21)       -149.1977         estimate D2E/DX2                !
 ! D70   D(15,11,52,8)         -85.5169         estimate D2E/DX2                !
 ! D71   D(15,11,52,9)          90.0806         estimate D2E/DX2                !
 ! D72   D(15,11,52,10)          0.3425         estimate D2E/DX2                !
 ! D73   D(15,11,52,54)        177.2564         estimate D2E/DX2                !
 ! D74   D(16,11,52,8)          38.1754         estimate D2E/DX2                !
 ! D75   D(16,11,52,9)        -146.2271         estimate D2E/DX2                !
 ! D76   D(16,11,52,10)        124.0348         estimate D2E/DX2                !
 ! D77   D(16,11,52,54)        -59.0513         estimate D2E/DX2                !
 ! D78   D(17,11,52,8)         153.8824         estimate D2E/DX2                !
 ! D79   D(17,11,52,9)         -30.5201         estimate D2E/DX2                !
 ! D80   D(17,11,52,10)       -120.2582         estimate D2E/DX2                !
 ! D81   D(17,11,52,54)         56.6556         estimate D2E/DX2                !
 ! D82   D(15,11,53,55)        -19.8344         estimate D2E/DX2                !
 ! D83   D(15,11,53,56)         97.6016         estimate D2E/DX2                !
 ! D84   D(15,11,53,57)       -140.2908         estimate D2E/DX2                !
 ! D85   D(16,11,53,55)        104.3289         estimate D2E/DX2                !
 ! D86   D(16,11,53,56)       -138.2352         estimate D2E/DX2                !
 ! D87   D(16,11,53,57)        -16.1275         estimate D2E/DX2                !
 ! D88   D(17,11,53,55)       -138.0625         estimate D2E/DX2                !
 ! D89   D(17,11,53,56)        -20.6265         estimate D2E/DX2                !
 ! D90   D(17,11,53,57)        101.4811         estimate D2E/DX2                !
 ! D91   D(10,12,15,11)         49.9426         estimate D2E/DX2                !
 ! D92   D(10,12,15,20)        -70.032          estimate D2E/DX2                !
 ! D93   D(10,12,15,21)        172.4001         estimate D2E/DX2                !
 ! D94   D(18,12,15,11)        169.6693         estimate D2E/DX2                !
 ! D95   D(18,12,15,20)         49.6947         estimate D2E/DX2                !
 ! D96   D(18,12,15,21)        -67.8732         estimate D2E/DX2                !
 ! D97   D(19,12,15,11)        -71.1957         estimate D2E/DX2                !
 ! D98   D(19,12,15,20)        168.8298         estimate D2E/DX2                !
 ! D99   D(19,12,15,21)         51.2619         estimate D2E/DX2                !
 ! D100  D(10,12,18,32)         46.7305         estimate D2E/DX2                !
 ! D101  D(10,12,18,33)       -133.6729         estimate D2E/DX2                !
 ! D102  D(15,12,18,32)        -70.3915         estimate D2E/DX2                !
 ! D103  D(15,12,18,33)        109.2051         estimate D2E/DX2                !
 ! D104  D(19,12,18,32)        168.9293         estimate D2E/DX2                !
 ! D105  D(19,12,18,33)        -11.4741         estimate D2E/DX2                !
 ! D106  D(11,15,21,42)         65.4949         estimate D2E/DX2                !
 ! D107  D(11,15,21,43)       -113.9852         estimate D2E/DX2                !
 ! D108  D(12,15,21,42)        -55.9922         estimate D2E/DX2                !
 ! D109  D(12,15,21,43)        124.5277         estimate D2E/DX2                !
 ! D110  D(20,15,21,42)       -175.1503         estimate D2E/DX2                !
 ! D111  D(20,15,21,43)          5.3696         estimate D2E/DX2                !
 ! D112  D(12,18,32,36)       -179.9823         estimate D2E/DX2                !
 ! D113  D(12,18,32,37)         -0.2716         estimate D2E/DX2                !
 ! D114  D(33,18,32,36)          0.4217         estimate D2E/DX2                !
 ! D115  D(33,18,32,37)       -179.8675         estimate D2E/DX2                !
 ! D116  D(12,18,33,35)       -179.9171         estimate D2E/DX2                !
 ! D117  D(12,18,33,41)         -0.4422         estimate D2E/DX2                !
 ! D118  D(32,18,33,35)         -0.318          estimate D2E/DX2                !
 ! D119  D(32,18,33,41)        179.157          estimate D2E/DX2                !
 ! D120  D(15,21,42,46)       -179.6542         estimate D2E/DX2                !
 ! D121  D(15,21,42,47)          0.6473         estimate D2E/DX2                !
 ! D122  D(43,21,42,46)         -0.1773         estimate D2E/DX2                !
 ! D123  D(43,21,42,47)       -179.8759         estimate D2E/DX2                !
 ! D124  D(15,21,43,45)        179.6928         estimate D2E/DX2                !
 ! D125  D(15,21,43,51)         -0.4868         estimate D2E/DX2                !
 ! D126  D(42,21,43,45)          0.2023         estimate D2E/DX2                !
 ! D127  D(42,21,43,51)       -179.9773         estimate D2E/DX2                !
 ! D128  D(5,22,26,24)          -0.0991         estimate D2E/DX2                !
 ! D129  D(5,22,26,28)         179.4262         estimate D2E/DX2                !
 ! D130  D(27,22,26,24)        179.9518         estimate D2E/DX2                !
 ! D131  D(27,22,26,28)         -0.523          estimate D2E/DX2                !
 ! D132  D(5,23,25,24)          -0.1764         estimate D2E/DX2                !
 ! D133  D(5,23,25,30)        -179.4703         estimate D2E/DX2                !
 ! D134  D(31,23,25,24)        179.3144         estimate D2E/DX2                !
 ! D135  D(31,23,25,30)          0.0205         estimate D2E/DX2                !
 ! D136  D(26,24,25,23)          0.0095         estimate D2E/DX2                !
 ! D137  D(26,24,25,30)        179.3037         estimate D2E/DX2                !
 ! D138  D(29,24,25,23)       -179.6002         estimate D2E/DX2                !
 ! D139  D(29,24,25,30)         -0.3059         estimate D2E/DX2                !
 ! D140  D(25,24,26,22)          0.1278         estimate D2E/DX2                !
 ! D141  D(25,24,26,28)       -179.3969         estimate D2E/DX2                !
 ! D142  D(29,24,26,22)        179.737          estimate D2E/DX2                !
 ! D143  D(29,24,26,28)          0.2123         estimate D2E/DX2                !
 ! D144  D(18,32,36,34)         -0.2452         estimate D2E/DX2                !
 ! D145  D(18,32,36,38)        179.7726         estimate D2E/DX2                !
 ! D146  D(37,32,36,34)       -179.9578         estimate D2E/DX2                !
 ! D147  D(37,32,36,38)          0.06           estimate D2E/DX2                !
 ! D148  D(18,33,35,34)          0.0373         estimate D2E/DX2                !
 ! D149  D(18,33,35,40)        179.9249         estimate D2E/DX2                !
 ! D150  D(41,33,35,34)       -179.4415         estimate D2E/DX2                !
 ! D151  D(41,33,35,40)          0.4462         estimate D2E/DX2                !
 ! D152  D(36,34,35,33)          0.1402         estimate D2E/DX2                !
 ! D153  D(36,34,35,40)       -179.7472         estimate D2E/DX2                !
 ! D154  D(39,34,35,33)       -179.9332         estimate D2E/DX2                !
 ! D155  D(39,34,35,40)          0.1793         estimate D2E/DX2                !
 ! D156  D(35,34,36,32)         -0.0359         estimate D2E/DX2                !
 ! D157  D(35,34,36,38)        179.9462         estimate D2E/DX2                !
 ! D158  D(39,34,36,32)       -179.9625         estimate D2E/DX2                !
 ! D159  D(39,34,36,38)          0.0196         estimate D2E/DX2                !
 ! D160  D(21,42,46,44)          0.0563         estimate D2E/DX2                !
 ! D161  D(21,42,46,48)       -179.7049         estimate D2E/DX2                !
 ! D162  D(47,42,46,44)        179.7565         estimate D2E/DX2                !
 ! D163  D(47,42,46,48)         -0.0047         estimate D2E/DX2                !
 ! D164  D(21,43,45,44)         -0.1064         estimate D2E/DX2                !
 ! D165  D(21,43,45,50)        179.7313         estimate D2E/DX2                !
 ! D166  D(51,43,45,44)       -179.9273         estimate D2E/DX2                !
 ! D167  D(51,43,45,50)         -0.0896         estimate D2E/DX2                !
 ! D168  D(46,44,45,43)         -0.0158         estimate D2E/DX2                !
 ! D169  D(46,44,45,50)       -179.8531         estimate D2E/DX2                !
 ! D170  D(49,44,45,43)        179.8201         estimate D2E/DX2                !
 ! D171  D(49,44,45,50)         -0.0173         estimate D2E/DX2                !
 ! D172  D(45,44,46,42)          0.0408         estimate D2E/DX2                !
 ! D173  D(45,44,46,48)        179.8018         estimate D2E/DX2                !
 ! D174  D(49,44,46,42)       -179.795          estimate D2E/DX2                !
 ! D175  D(49,44,46,48)         -0.034          estimate D2E/DX2                !
 ! D176  D(8,52,53,55)          64.6447         estimate D2E/DX2                !
 ! D177  D(8,52,53,56)        -174.2077         estimate D2E/DX2                !
 ! D178  D(8,52,53,57)         -54.3996         estimate D2E/DX2                !
 ! D179  D(9,52,53,55)        -110.055          estimate D2E/DX2                !
 ! D180  D(9,52,53,56)          11.0926         estimate D2E/DX2                !
 ! D181  D(9,52,53,57)         130.9007         estimate D2E/DX2                !
 ! D182  D(10,52,53,55)        -21.437          estimate D2E/DX2                !
 ! D183  D(10,52,53,56)         99.7106         estimate D2E/DX2                !
 ! D184  D(10,52,53,57)       -140.4813         estimate D2E/DX2                !
 ! D185  D(54,52,53,55)        162.4502         estimate D2E/DX2                !
 ! D186  D(54,52,53,56)        -76.4022         estimate D2E/DX2                !
 ! D187  D(54,52,53,57)         43.4059         estimate D2E/DX2                !
 ! D188  D(8,52,54,58)        -107.7766         estimate D2E/DX2                !
 ! D189  D(8,52,54,59)          10.6041         estimate D2E/DX2                !
 ! D190  D(8,52,54,60)         132.696          estimate D2E/DX2                !
 ! D191  D(9,52,54,58)          64.9082         estimate D2E/DX2                !
 ! D192  D(9,52,54,59)        -176.7111         estimate D2E/DX2                !
 ! D193  D(9,52,54,60)         -54.6193         estimate D2E/DX2                !
 ! D194  D(11,52,54,58)        -20.1108         estimate D2E/DX2                !
 ! D195  D(11,52,54,59)         98.2699         estimate D2E/DX2                !
 ! D196  D(11,52,54,60)       -139.6383         estimate D2E/DX2                !
 ! D197  D(53,52,54,58)        154.0784         estimate D2E/DX2                !
 ! D198  D(53,52,54,59)        -87.5409         estimate D2E/DX2                !
 ! D199  D(53,52,54,60)         34.551          estimate D2E/DX2                !
 ! D200  D(52,53,55,91)        131.5808         estimate D2E/DX2                !
 ! D201  D(52,53,55,92)        -43.0461         estimate D2E/DX2                !
 ! D202  D(56,53,55,91)         -0.9862         estimate D2E/DX2                !
 ! D203  D(56,53,55,92)       -175.613          estimate D2E/DX2                !
 ! D204  D(57,53,55,91)       -104.9847         estimate D2E/DX2                !
 ! D205  D(57,53,55,92)         80.3884         estimate D2E/DX2                !
 ! D206  D(52,53,56,101)       170.4106         estimate D2E/DX2                !
 ! D207  D(52,53,56,102)        -8.8068         estimate D2E/DX2                !
 ! D208  D(55,53,56,101)       -63.1053         estimate D2E/DX2                !
 ! D209  D(55,53,56,102)       117.6773         estimate D2E/DX2                !
 ! D210  D(57,53,56,101)        44.751          estimate D2E/DX2                !
 ! D211  D(57,53,56,102)      -134.4664         estimate D2E/DX2                !
 ! D212  D(52,53,57,61)        -72.5921         estimate D2E/DX2                !
 ! D213  D(52,53,57,62)         98.4675         estimate D2E/DX2                !
 ! D214  D(55,53,57,61)        163.9902         estimate D2E/DX2                !
 ! D215  D(55,53,57,62)        -24.9502         estimate D2E/DX2                !
 ! D216  D(56,53,57,61)         59.3009         estimate D2E/DX2                !
 ! D217  D(56,53,57,62)       -129.6395         estimate D2E/DX2                !
 ! D218  D(52,54,58,111)       105.8161         estimate D2E/DX2                !
 ! D219  D(52,54,58,112)       -60.5139         estimate D2E/DX2                !
 ! D220  D(59,54,58,111)       -26.6718         estimate D2E/DX2                !
 ! D221  D(59,54,58,112)       166.9982         estimate D2E/DX2                !
 ! D222  D(60,54,58,111)      -129.2678         estimate D2E/DX2                !
 ! D223  D(60,54,58,112)        64.4022         estimate D2E/DX2                !
 ! D224  D(52,54,59,121)      -171.6777         estimate D2E/DX2                !
 ! D225  D(52,54,59,122)        12.4152         estimate D2E/DX2                !
 ! D226  D(58,54,59,121)       -50.8905         estimate D2E/DX2                !
 ! D227  D(58,54,59,122)       133.2024         estimate D2E/DX2                !
 ! D228  D(60,54,59,121)        58.7288         estimate D2E/DX2                !
 ! D229  D(60,54,59,122)      -117.1783         estimate D2E/DX2                !
 ! D230  D(52,54,60,63)        -70.4843         estimate D2E/DX2                !
 ! D231  D(52,54,60,64)        105.0909         estimate D2E/DX2                !
 ! D232  D(58,54,60,63)        170.0491         estimate D2E/DX2                !
 ! D233  D(58,54,60,64)        -14.3757         estimate D2E/DX2                !
 ! D234  D(59,54,60,63)         64.9022         estimate D2E/DX2                !
 ! D235  D(59,54,60,64)       -119.5226         estimate D2E/DX2                !
 ! D236  D(53,55,91,93)       -175.8315         estimate D2E/DX2                !
 ! D237  D(53,55,91,94)          3.5904         estimate D2E/DX2                !
 ! D238  D(92,55,91,93)         -1.2579         estimate D2E/DX2                !
 ! D239  D(92,55,91,94)        178.164          estimate D2E/DX2                !
 ! D240  D(53,55,92,95)        176.7778         estimate D2E/DX2                !
 ! D241  D(53,55,92,96)         -1.3603         estimate D2E/DX2                !
 ! D242  D(91,55,92,95)          1.7766         estimate D2E/DX2                !
 ! D243  D(91,55,92,96)       -176.3615         estimate D2E/DX2                !
 ! D244  D(53,56,101,103)     -179.2898         estimate D2E/DX2                !
 ! D245  D(53,56,101,104)       -0.0779         estimate D2E/DX2                !
 ! D246  D(102,56,101,103)      -0.0477         estimate D2E/DX2                !
 ! D247  D(102,56,101,104)     179.1642         estimate D2E/DX2                !
 ! D248  D(53,56,102,105)      178.255          estimate D2E/DX2                !
 ! D249  D(53,56,102,106)       -0.0328         estimate D2E/DX2                !
 ! D250  D(101,56,102,105)      -0.971          estimate D2E/DX2                !
 ! D251  D(101,56,102,106)    -179.2588         estimate D2E/DX2                !
 ! D252  D(53,57,61,63)        -12.3994         estimate D2E/DX2                !
 ! D253  D(53,57,61,65)        169.4543         estimate D2E/DX2                !
 ! D254  D(62,57,61,63)        176.5716         estimate D2E/DX2                !
 ! D255  D(62,57,61,65)         -1.5747         estimate D2E/DX2                !
 ! D256  D(53,57,62,66)       -170.715          estimate D2E/DX2                !
 ! D257  D(53,57,62,67)          9.6535         estimate D2E/DX2                !
 ! D258  D(61,57,62,66)          0.4203         estimate D2E/DX2                !
 ! D259  D(61,57,62,67)       -179.2112         estimate D2E/DX2                !
 ! D260  D(54,58,111,113)     -167.1057         estimate D2E/DX2                !
 ! D261  D(54,58,111,114)       11.0389         estimate D2E/DX2                !
 ! D262  D(112,58,111,113)      -0.5217         estimate D2E/DX2                !
 ! D263  D(112,58,111,114)     177.6228         estimate D2E/DX2                !
 ! D264  D(54,58,112,115)      168.3344         estimate D2E/DX2                !
 ! D265  D(54,58,112,116)       -9.1015         estimate D2E/DX2                !
 ! D266  D(111,58,112,115)       1.6262         estimate D2E/DX2                !
 ! D267  D(111,58,112,116)    -175.8097         estimate D2E/DX2                !
 ! D268  D(54,59,121,123)     -177.4596         estimate D2E/DX2                !
 ! D269  D(54,59,121,124)        2.6359         estimate D2E/DX2                !
 ! D270  D(122,59,121,123)      -1.5238         estimate D2E/DX2                !
 ! D271  D(122,59,121,124)     178.5716         estimate D2E/DX2                !
 ! D272  D(54,59,122,125)      177.031          estimate D2E/DX2                !
 ! D273  D(54,59,122,126)       -1.034          estimate D2E/DX2                !
 ! D274  D(121,59,122,125)       1.0241         estimate D2E/DX2                !
 ! D275  D(121,59,122,126)    -177.0409         estimate D2E/DX2                !
 ! D276  D(54,60,63,61)         -7.7462         estimate D2E/DX2                !
 ! D277  D(54,60,63,68)        174.1141         estimate D2E/DX2                !
 ! D278  D(64,60,63,61)        176.627          estimate D2E/DX2                !
 ! D279  D(64,60,63,68)         -1.5127         estimate D2E/DX2                !
 ! D280  D(54,60,64,69)       -172.8605         estimate D2E/DX2                !
 ! D281  D(54,60,64,70)          7.6518         estimate D2E/DX2                !
 ! D282  D(63,60,64,69)          2.7439         estimate D2E/DX2                !
 ! D283  D(63,60,64,70)       -176.7438         estimate D2E/DX2                !
 ! D284  D(57,61,63,60)         74.6489         estimate D2E/DX2                !
 ! D285  D(57,61,63,68)       -107.1644         estimate D2E/DX2                !
 ! D286  D(65,61,63,60)       -107.1683         estimate D2E/DX2                !
 ! D287  D(65,61,63,68)         71.0184         estimate D2E/DX2                !
 ! D288  D(57,61,65,71)          1.6159         estimate D2E/DX2                !
 ! D289  D(57,61,65,72)       -176.8664         estimate D2E/DX2                !
 ! D290  D(63,61,65,71)       -176.6301         estimate D2E/DX2                !
 ! D291  D(63,61,65,72)          4.8876         estimate D2E/DX2                !
 ! D292  D(57,62,66,71)          0.725          estimate D2E/DX2                !
 ! D293  D(57,62,66,73)       -179.4664         estimate D2E/DX2                !
 ! D294  D(67,62,66,71)       -179.6417         estimate D2E/DX2                !
 ! D295  D(67,62,66,73)          0.1669         estimate D2E/DX2                !
 ! D296  D(60,63,68,74)         -1.0903         estimate D2E/DX2                !
 ! D297  D(60,63,68,75)        179.891          estimate D2E/DX2                !
 ! D298  D(61,63,68,74)       -179.3463         estimate D2E/DX2                !
 ! D299  D(61,63,68,75)          1.6349         estimate D2E/DX2                !
 ! D300  D(60,64,69,74)         -1.2659         estimate D2E/DX2                !
 ! D301  D(60,64,69,76)        179.4669         estimate D2E/DX2                !
 ! D302  D(70,64,69,74)        178.228          estimate D2E/DX2                !
 ! D303  D(70,64,69,76)         -1.0392         estimate D2E/DX2                !
 ! D304  D(61,65,71,66)         -0.4933         estimate D2E/DX2                !
 ! D305  D(61,65,71,77)       -179.3624         estimate D2E/DX2                !
 ! D306  D(72,65,71,66)        178.0551         estimate D2E/DX2                !
 ! D307  D(72,65,71,77)         -0.814          estimate D2E/DX2                !
 ! D308  D(61,65,72,78)        178.9154         estimate D2E/DX2                !
 ! D309  D(61,65,72,79)          0.1686         estimate D2E/DX2                !
 ! D310  D(71,65,72,78)          0.4062         estimate D2E/DX2                !
 ! D311  D(71,65,72,79)       -178.3407         estimate D2E/DX2                !
 ! D312  D(62,66,71,65)         -0.6678         estimate D2E/DX2                !
 ! D313  D(62,66,71,77)        178.1852         estimate D2E/DX2                !
 ! D314  D(73,66,71,65)        179.5213         estimate D2E/DX2                !
 ! D315  D(73,66,71,77)         -1.6256         estimate D2E/DX2                !
 ! D316  D(63,68,74,69)          2.5448         estimate D2E/DX2                !
 ! D317  D(63,68,74,80)       -178.2413         estimate D2E/DX2                !
 ! D318  D(75,68,74,69)       -178.3908         estimate D2E/DX2                !
 ! D319  D(75,68,74,80)          0.8232         estimate D2E/DX2                !
 ! D320  D(63,68,75,81)        179.0911         estimate D2E/DX2                !
 ! D321  D(63,68,75,82)          0.0258         estimate D2E/DX2                !
 ! D322  D(74,68,75,81)          0.0536         estimate D2E/DX2                !
 ! D323  D(74,68,75,82)       -179.0116         estimate D2E/DX2                !
 ! D324  D(64,69,74,68)         -1.3879         estimate D2E/DX2                !
 ! D325  D(64,69,74,80)        179.4089         estimate D2E/DX2                !
 ! D326  D(76,69,74,68)        177.8871         estimate D2E/DX2                !
 ! D327  D(76,69,74,80)         -1.3161         estimate D2E/DX2                !
 ! D328  D(65,71,77,83)          0.5884         estimate D2E/DX2                !
 ! D329  D(65,71,77,84)       -179.9181         estimate D2E/DX2                !
 ! D330  D(66,71,77,83)       -178.2549         estimate D2E/DX2                !
 ! D331  D(66,71,77,84)          1.2386         estimate D2E/DX2                !
 ! D332  D(65,72,78,83)          0.245          estimate D2E/DX2                !
 ! D333  D(65,72,78,85)       -179.2749         estimate D2E/DX2                !
 ! D334  D(79,72,78,83)        178.9926         estimate D2E/DX2                !
 ! D335  D(79,72,78,85)         -0.5273         estimate D2E/DX2                !
 ! D336  D(68,74,80,86)         -0.987          estimate D2E/DX2                !
 ! D337  D(68,74,80,87)        179.4041         estimate D2E/DX2                !
 ! D338  D(69,74,80,86)        178.2085         estimate D2E/DX2                !
 ! D339  D(69,74,80,87)         -1.4004         estimate D2E/DX2                !
 ! D340  D(68,75,81,86)         -0.7931         estimate D2E/DX2                !
 ! D341  D(68,75,81,88)       -179.8666         estimate D2E/DX2                !
 ! D342  D(82,75,81,86)        178.2756         estimate D2E/DX2                !
 ! D343  D(82,75,81,88)         -0.798          estimate D2E/DX2                !
 ! D344  D(71,77,83,78)          0.0703         estimate D2E/DX2                !
 ! D345  D(71,77,83,89)        179.671          estimate D2E/DX2                !
 ! D346  D(84,77,83,78)       -179.4119         estimate D2E/DX2                !
 ! D347  D(84,77,83,89)          0.1888         estimate D2E/DX2                !
 ! D348  D(72,78,83,77)         -0.4919         estimate D2E/DX2                !
 ! D349  D(72,78,83,89)        179.9053         estimate D2E/DX2                !
 ! D350  D(85,78,83,77)        179.0283         estimate D2E/DX2                !
 ! D351  D(85,78,83,89)         -0.5746         estimate D2E/DX2                !
 ! D352  D(74,80,86,81)          0.2517         estimate D2E/DX2                !
 ! D353  D(74,80,86,90)       -179.7623         estimate D2E/DX2                !
 ! D354  D(87,80,86,81)        179.8519         estimate D2E/DX2                !
 ! D355  D(87,80,86,90)         -0.1621         estimate D2E/DX2                !
 ! D356  D(75,81,86,80)          0.6417         estimate D2E/DX2                !
 ! D357  D(75,81,86,90)       -179.3444         estimate D2E/DX2                !
 ! D358  D(88,81,86,80)        179.7157         estimate D2E/DX2                !
 ! D359  D(88,81,86,90)         -0.2704         estimate D2E/DX2                !
 ! D360  D(55,91,93,97)          0.0265         estimate D2E/DX2                !
 ! D361  D(55,91,93,98)        179.8247         estimate D2E/DX2                !
 ! D362  D(94,91,93,97)       -179.4078         estimate D2E/DX2                !
 ! D363  D(94,91,93,98)          0.3905         estimate D2E/DX2                !
 ! D364  D(55,92,95,97)         -1.0522         estimate D2E/DX2                !
 ! D365  D(55,92,95,99)        179.9145         estimate D2E/DX2                !
 ! D366  D(96,92,95,97)        177.0886         estimate D2E/DX2                !
 ! D367  D(96,92,95,99)         -1.9447         estimate D2E/DX2                !
 ! D368  D(91,93,97,95)          0.7321         estimate D2E/DX2                !
 ! D369  D(91,93,97,100)       179.9931         estimate D2E/DX2                !
 ! D370  D(98,93,97,95)       -179.0646         estimate D2E/DX2                !
 ! D371  D(98,93,97,100)         0.1965         estimate D2E/DX2                !
 ! D372  D(92,95,97,93)         -0.2262         estimate D2E/DX2                !
 ! D373  D(92,95,97,100)      -179.4869         estimate D2E/DX2                !
 ! D374  D(99,95,97,93)        178.7973         estimate D2E/DX2                !
 ! D375  D(99,95,97,100)        -0.4634         estimate D2E/DX2                !
 ! D376  D(56,101,103,107)       1.0844         estimate D2E/DX2                !
 ! D377  D(56,101,103,108)     179.6715         estimate D2E/DX2                !
 ! D378  D(104,101,103,107)   -178.1336         estimate D2E/DX2                !
 ! D379  D(104,101,103,108)      0.4535         estimate D2E/DX2                !
 ! D380  D(56,102,105,107)       0.9575         estimate D2E/DX2                !
 ! D381  D(56,102,105,109)    -178.6694         estimate D2E/DX2                !
 ! D382  D(106,102,105,107)    179.2336         estimate D2E/DX2                !
 ! D383  D(106,102,105,109)     -0.3933         estimate D2E/DX2                !
 ! D384  D(101,103,107,105)     -1.1001         estimate D2E/DX2                !
 ! D385  D(101,103,107,110)    178.7462         estimate D2E/DX2                !
 ! D386  D(108,103,107,105)   -179.6806         estimate D2E/DX2                !
 ! D387  D(108,103,107,110)      0.1657         estimate D2E/DX2                !
 ! D388  D(102,105,107,103)      0.09           estimate D2E/DX2                !
 ! D389  D(102,105,107,110)   -179.7561         estimate D2E/DX2                !
 ! D390  D(109,105,107,103)    179.715          estimate D2E/DX2                !
 ! D391  D(109,105,107,110)     -0.1312         estimate D2E/DX2                !
 ! D392  D(58,111,113,117)      -0.7394         estimate D2E/DX2                !
 ! D393  D(58,111,113,118)     179.3449         estimate D2E/DX2                !
 ! D394  D(114,111,113,117)   -178.9117         estimate D2E/DX2                !
 ! D395  D(114,111,113,118)      1.1725         estimate D2E/DX2                !
 ! D396  D(58,112,115,117)      -1.4762         estimate D2E/DX2                !
 ! D397  D(58,112,115,119)     179.7652         estimate D2E/DX2                !
 ! D398  D(116,112,115,117)    175.9868         estimate D2E/DX2                !
 ! D399  D(116,112,115,119)     -2.7718         estimate D2E/DX2                !
 ! D400  D(111,113,117,115)      0.9134         estimate D2E/DX2                !
 ! D401  D(111,113,117,120)   -179.8518         estimate D2E/DX2                !
 ! D402  D(118,113,117,115)   -179.1715         estimate D2E/DX2                !
 ! D403  D(118,113,117,120)      0.0633         estimate D2E/DX2                !
 ! D404  D(112,115,117,113)      0.1817         estimate D2E/DX2                !
 ! D405  D(112,115,117,120)   -179.0538         estimate D2E/DX2                !
 ! D406  D(119,115,117,113)    178.9319         estimate D2E/DX2                !
 ! D407  D(119,115,117,120)     -0.3036         estimate D2E/DX2                !
 ! D408  D(59,121,123,127)       1.0696         estimate D2E/DX2                !
 ! D409  D(59,121,123,128)    -179.776          estimate D2E/DX2                !
 ! D410  D(124,121,123,127)   -179.0252         estimate D2E/DX2                !
 ! D411  D(124,121,123,128)      0.1292         estimate D2E/DX2                !
 ! D412  D(59,122,125,127)      -0.0672         estimate D2E/DX2                !
 ! D413  D(59,122,125,129)    -179.0397         estimate D2E/DX2                !
 ! D414  D(126,122,125,127)    177.9648         estimate D2E/DX2                !
 ! D415  D(126,122,125,129)     -1.0077         estimate D2E/DX2                !
 ! D416  D(121,123,127,125)     -0.0931         estimate D2E/DX2                !
 ! D417  D(121,123,127,130)    179.1775         estimate D2E/DX2                !
 ! D418  D(128,123,127,125)   -179.2452         estimate D2E/DX2                !
 ! D419  D(128,123,127,130)      0.0254         estimate D2E/DX2                !
 ! D420  D(122,125,127,123)     -0.4068         estimate D2E/DX2                !
 ! D421  D(122,125,127,130)   -179.6764         estimate D2E/DX2                !
 ! D422  D(129,125,127,123)    178.5597         estimate D2E/DX2                !
 ! D423  D(129,125,127,130)     -0.7099         estimate D2E/DX2                !
 --------------------------------------------------------------------------------
 Trust Radius=3.00D-01 FncErr=1.00D-07 GrdErr=1.00D-06
 Number of steps in this run=    780 maximum allowed number of steps=    780.
[...]
 Alpha virt. eigenvalues --    1.18281   1.18868   1.19299   1.19667   1.19853
 Alpha virt. eigenvalues --    1.20171   1.20580   1.20888   1.21086   1.21418
 Alpha virt. eigenvalues --    1.21786   1.21928   1.22249   1.22467   1.22633
 Alpha virt. eigenvalues --    1.23166   1.23358   1.24139   1.24584   1.24734
 Alpha virt. eigenvalues --    1.25047   1.25436   1.25859   1.26016   1.26292
 Alpha virt. eigenvalues --    1.26538   1.26603   1.26968   1.27520   1.27818
 Alpha virt. eigenvalues --    1.28518   1.28623   1.28721   1.29575   1.29876
 Alpha virt. eigenvalues --    1.29950   1.31242   1.31286   1.31449   1.31942
 Alpha virt. eigenvalues --    1.32040   1.32558   1.32588   1.33003   1.33387
 Alpha virt. eigenvalues --    1.33711   1.34141   1.34413   1.34744   1.34922
 Alpha virt. eigenvalues --    1.35222   1.35507   1.35667   1.35996   1.36258
 Alpha virt. eigenvalues --    1.36794   1.37361   1.37733   1.38131   1.38281
 Alpha virt. eigenvalues --    1.39014   1.39267   1.39946   1.40124   1.41053
 Alpha virt. eigenvalues --    1.41921   1.42308   1.42487   1.43180   1.43647
 Alpha virt. eigenvalues --    1.44210   1.44582   1.45170   1.45624   1.46285
 Alpha virt. eigenvalues --    1.47114   1.47501   1.47766   1.48030   1.48436
 Alpha virt. eigenvalues --    1.48948   1.49280   1.49679   1.49940   1.50395
 Alpha virt. eigenvalues --    1.50704   1.50932   1.51263   1.51610   1.51720
 Alpha virt. eigenvalues --    1.52410   1.52934   1.53226   1.53426   1.53609
 Alpha virt. eigenvalues --    1.53751   1.53832   1.54081   1.54724   1.54909
 Alpha virt. eigenvalues --    1.55288   1.55368   1.55528   1.55606   1.55828
 Alpha virt. eigenvalues --    1.55944   1.56294   1.56512   1.56646   1.56734
 Alpha virt. eigenvalues --    1.56793   1.57230   1.57477   1.57550   1.57689
 Alpha virt. eigenvalues --    1.57834   1.58065   1.58103   1.58344   1.58455
 Alpha virt. eigenvalues --    1.58549   1.58678   1.58762   1.58904   1.59184
 Alpha virt. eigenvalues --    1.59315   1.59609   1.59685   1.59861   1.60131
 Alpha virt. eigenvalues --    1.60495   1.60907   1.60973   1.61274   1.61692
 Alpha virt. eigenvalues --    1.61875   1.62696   1.63271   1.63676   1.63796
 Alpha virt. eigenvalues --    1.64335   1.64912   1.65534   1.65623   1.66551
 Alpha virt. eigenvalues --    1.67169   1.68012   1.68359   1.69171   1.70543
 Alpha virt. eigenvalues --    1.70988   1.71180   1.72557   1.72929   1.73673
 Alpha virt. eigenvalues --    1.73943   1.74807   1.76431   1.77213   1.77850
 Alpha virt. eigenvalues --    1.77914   1.79069   1.79801   1.83152   1.83764
 Alpha virt. eigenvalues --    1.84990   1.85119   1.85955   1.86826   1.87219
 Alpha virt. eigenvalues --    1.87466   1.87757   1.88702   1.89124   1.89356
 Alpha virt. eigenvalues --    1.89577   1.90093   1.90426   1.90655   1.91007
 Alpha virt. eigenvalues --    1.91336   1.91720   1.91816   1.92776   1.92843
 Alpha virt. eigenvalues --    1.93130   1.93408   1.93748   1.93890   1.94107
 Alpha virt. eigenvalues --    1.94450   1.95005   1.95633   1.95969   1.96223
 Alpha virt. eigenvalues --    1.96531   1.97527   1.97624   1.98192   1.98471
 Alpha virt. eigenvalues --    1.99119   1.99332   1.99393   1.99787   2.00349
 Alpha virt. eigenvalues --    2.00570   2.00678   2.01030   2.01254   2.01937
 Alpha virt. eigenvalues --    2.02163   2.02314   2.02648   2.03225   2.03341
 Alpha virt. eigenvalues --    2.03515   2.04152   2.04670   2.05132   2.05248
 Alpha virt. eigenvalues --    2.05853   2.06147   2.06723   2.07029   2.07289
 Alpha virt. eigenvalues --    2.07913   2.08168   2.08451   2.08658   2.09055
 Alpha virt. eigenvalues --    2.09099   2.09881   2.10198   2.10801   2.11149
 Alpha virt. eigenvalues --    2.11401   2.12279   2.12367   2.12874   2.13050
 Alpha virt. eigenvalues --    2.13566   2.14091   2.14672   2.14855   2.15438
 Alpha virt. eigenvalues --    2.15784   2.15932   2.16082   2.16672   2.17218
 Alpha virt. eigenvalues --    2.17859   2.18633   2.18935   2.19580   2.19946
 Alpha virt. eigenvalues --    2.20173   2.20685   2.21016   2.21653   2.21870
 Alpha virt. eigenvalues --    2.22243   2.22282   2.22654   2.23272   2.23344
 Alpha virt. eigenvalues --    2.23563   2.23731   2.23904   2.24046   2.24272
 Alpha virt. eigenvalues --    2.24420   2.24565   2.24689   2.24907   2.25167
 Alpha virt. eigenvalues --    2.25383   2.25833   2.25962   2.25976   2.26091
 Alpha virt. eigenvalues --    2.26262   2.26406   2.26648   2.26961   2.27333
 Alpha virt. eigenvalues --    2.27485   2.27707   2.27867   2.28151   2.28417
 Alpha virt. eigenvalues --    2.28782   2.28914   2.29397   2.29672   2.29915
 Alpha virt. eigenvalues --    2.30119   2.30460   2.30872   2.30985   2.31365
 Alpha virt. eigenvalues --    2.31963   2.32541   2.33904   2.34488   2.34976
 Alpha virt. eigenvalues --    2.36254   2.36337   2.36687   2.37150   2.37414
 Alpha virt. eigenvalues --    2.38089   2.38354   2.38513   2.38707   2.38799
 Alpha virt. eigenvalues --    2.39366   2.39626   2.39840   2.39919   2.39984
 Alpha virt. eigenvalues --    2.40068   2.40291   2.40445   2.40603   2.40743
 Alpha virt. eigenvalues --    2.40888   2.41285   2.41642   2.41730   2.42192
 Alpha virt. eigenvalues --    2.42539   2.42772   2.43014   2.43199   2.43574
 Alpha virt. eigenvalues --    2.43841   2.44005   2.44208   2.44906   2.45199
 Alpha virt. eigenvalues --    2.46607   2.48555   2.51320   2.52356   2.53825
 Alpha virt. eigenvalues --    2.55493   2.56159   2.56624   2.58277   2.59390
 Alpha virt. eigenvalues --    2.61837   2.63560   2.64841   2.65285   2.65640
 Alpha virt. eigenvalues --    2.66512   2.67156   2.67254   2.67626   2.68072
 Alpha virt. eigenvalues --    2.68107   2.68463   2.68885   2.69175   2.69329
 Alpha virt. eigenvalues --    2.70052   2.70206   2.70269   2.70761   2.71292
 Alpha virt. eigenvalues --    2.71504   2.72387   2.73019   2.73230   2.73364
 Alpha virt. eigenvalues --    2.73499   2.73717   2.73975   2.74242   2.74250
 Alpha virt. eigenvalues --    2.74446   2.74595   2.74687   2.74970   2.75425
 Alpha virt. eigenvalues --    2.76231   2.76420   2.77062   2.77399   2.77877
 Alpha virt. eigenvalues --    2.78208   2.78615   2.78771   2.80017   2.80515
 Alpha virt. eigenvalues --    2.81094   2.81268   2.81785   2.81872   2.82147
 Alpha virt. eigenvalues --    2.82825   2.82977   2.83379   2.84395   2.84597
 Alpha virt. eigenvalues --    2.84881   2.85091   2.85338   2.85904   2.86225
 Alpha virt. eigenvalues --    2.86290   2.86760   2.86930   2.87189   2.87430
 Alpha virt. eigenvalues --    2.87626   2.88425   2.88662   2.88998   2.89410
 Alpha virt. eigenvalues --    2.90068   2.90421   2.90875   2.91576   2.91804
 Alpha virt. eigenvalues --    2.92364   2.93225   2.93594   2.94534   2.95127
 Alpha virt. eigenvalues --    2.96208   2.97806   2.99583   3.01014   3.01417
 Alpha virt. eigenvalues --    3.03085   3.03475   3.06557   3.06914   3.07657
 Alpha virt. eigenvalues --    3.08855   3.10018   3.14255   3.14760   3.14977
 Alpha virt. eigenvalues --    3.16329   3.17847   3.18165   3.18941   3.19405
 Alpha virt. eigenvalues --    3.22365   3.23318   3.26671   3.43959   3.47255
 Alpha virt. eigenvalues --    3.48466   3.49011   3.50339   3.50514   3.51204
 Alpha virt. eigenvalues --    3.51966   3.52135   3.56176   3.58997  34.86941
 Alpha virt. eigenvalues --   35.13029  35.31357  46.39991
          Condensed to atoms (all electrons):
 Mulliken charges:
               1
     1  H    0.190372
     2  C   -0.551880
     3  C    0.344924
     4  O   -0.560863
     5  C    0.076631
     6  H    0.179643
     7  H    0.197030
     8  H   -0.179028
     9  H   -0.002266
    10  N   -0.857465
    11  N   -0.832712
    12  C   -0.058820
    13  H    0.431854
    14  H    0.464142
    15  C   -0.067171
    16  H    0.434159
    17  H    0.428049
    18  C    0.143408
    19  H    0.205756
    20  H    0.195076
    21  C    0.147842
    22  C   -0.209444
    23  C   -0.221377
    24  C   -0.179492
    25  C   -0.177733
    26  C   -0.194148
    27  H    0.195443
    28  H    0.187092
    29  H    0.187423
    30  H    0.186605
    31  H    0.190381
    32  C   -0.236040
    33  C   -0.228244
    34  C   -0.182137
    35  C   -0.183182
    36  C   -0.191145
    37  H    0.204382
    38  H    0.184383
    39  H    0.183655
    40  H    0.184578
    41  H    0.183614
    42  C   -0.237768
    43  C   -0.218740
    44  C   -0.182968
    45  C   -0.182158
    46  C   -0.182956
    47  H    0.195540
    48  H    0.187408
    49  H    0.186043
    50  H    0.186646
    51  H    0.178680
    52  Ru  -0.686107
    53  P    0.602148
    54  P    0.630735
    55  C   -0.136423
    56  C   -0.139088
    57  C   -0.131079
    58  C   -0.129140
    59  C   -0.152386
    60  C   -0.121976
    61  C   -0.070538
    62  C   -0.222837
    63  C   -0.069165
    64  C   -0.227734
    65  C    0.100472
    66  C   -0.217033
    67  H    0.184847
    68  C    0.105955
    69  C   -0.215204
    70  H    0.184615
    71  C    0.094073
    72  C   -0.198935
    73  H    0.186290
    74  C    0.082450
    75  C   -0.212008
    76  H    0.188075
    77  C   -0.227921
    78  C   -0.185854
    79  H    0.180174
    80  C   -0.227356
    81  C   -0.186222
    82  H    0.183736
    83  C   -0.187770
    84  H    0.183029
    85  H    0.180509
    86  C   -0.188445
    87  H    0.186141
    88  H    0.183890
    89  H    0.183024
    90  H    0.185941
    91  C   -0.199471
    92  C   -0.199389
    93  C   -0.175719
    94  H    0.184717
    95  C   -0.186332
    96  H    0.233768
    97  C   -0.183078
    98  H    0.185618
    99  H    0.188211
   100  H    0.187610
   101  C   -0.196371
   102  C   -0.174934
   103  C   -0.162736
   104  H    0.183039
   105  C   -0.190304
   106  H    0.218382
   107  C   -0.184920
   108  H    0.180354
   109  H    0.182936
   110  H    0.183756
   111  C   -0.199404
   112  C   -0.244374
   113  C   -0.171143
   114  H    0.189579
   115  C   -0.172840
   116  H    0.228210
   117  C   -0.180144
   118  H    0.189995
   119  H    0.192709
   120  H    0.191876
   121  C   -0.188904
   122  C   -0.178175
   123  C   -0.168221
   124  H    0.185447
   125  C   -0.174674
   126  H    0.220767
   127  C   -0.174882
   128  H    0.181432
   129  H    0.179860
   130  H    0.181842
 Sum of Mulliken charges =   0.00000
 Mulliken charges with hydrogens summed into heavy atoms:
               1
     2  C    0.015164
     3  C    0.165896
     4  O   -0.560863
     5  C    0.076631
    10  N    0.038531
    11  N    0.029496
    12  C    0.146936
    15  C    0.127905
    18  C    0.143408
    21  C    0.147842
    22  C   -0.014001
    23  C   -0.030996
    24  C    0.007932
    25  C    0.008872
    26  C   -0.007056
    32  C   -0.031658
    33  C   -0.044630
    34  C    0.001518
    35  C    0.001396
    36  C   -0.006762
    42  C   -0.042228
    43  C   -0.040060
    44  C    0.003075
    45  C    0.004488
    46  C    0.004452
    52  Ru  -0.688374
    53  P    0.602148
    54  P    0.630735
    55  C   -0.136423
    56  C   -0.139088
    57  C   -0.131079
    58  C   -0.129140
    59  C   -0.152386
    60  C   -0.121976
    61  C   -0.070538
    62  C   -0.037990
    63  C   -0.069165
    64  C   -0.043119
    65  C    0.100472
    66  C   -0.030743
    68  C    0.105955
    69  C   -0.027129
    71  C    0.094073
    72  C   -0.018761
    74  C    0.082450
    75  C   -0.028272
    77  C   -0.044892
    78  C   -0.005345
    80  C   -0.041216
    81  C   -0.002332
    83  C   -0.004746
    86  C   -0.002503
    91  C   -0.014755
    92  C    0.034378
    93  C    0.009899
    95  C    0.001879
    97  C    0.004532
   101  C   -0.013332
   102  C    0.043448
   103  C    0.017618
   105  C   -0.007368
   107  C   -0.001164
   111  C   -0.009825
   112  C   -0.016164
   113  C    0.018851
   115  C    0.019869
   117  C    0.011733
   121  C   -0.003457
   122  C    0.042593
   123  C    0.013211
   125  C    0.005186
   127  C    0.006960
 Electronic spatial extent (au):  <R**2>=          48610.2098
 Charge=              0.0000 electrons
 Dipole moment (field-independent basis, Debye):
    X=              0.2123    Y=             -3.3812    Z=              3.2066  Tot=              4.6647
 Quadrupole moment (field-independent basis, Debye-Ang):
   XX=           -394.1833   YY=           -409.3482   ZZ=           -408.7324
   XY=              8.6860   XZ=            -13.6198   YZ=             -0.4054
 Traceless Quadrupole moment (field-independent basis, Debye-Ang):
   XX=              9.9047   YY=             -5.2602   ZZ=             -4.6445
   XY=              8.6860   XZ=            -13.6198   YZ=             -0.4054
 Octapole moment (field-independent basis, Debye-Ang**2):
  XXX=           -131.8575  YYY=            -27.0563  ZZZ=             91.4789  XYY=             -4.3779
  XXY=            -17.7997  XXZ=             46.6334  XZZ=             20.6858  YZZ=             12.7372
  YYZ=            -10.6015  XYZ=             66.8519
 Hexadecapole moment (field-independent basis, Debye-Ang**3):
 XXXX=         -33994.9226 YYYY=         -16098.9582 ZZZZ=         -12221.5296 XXXY=            155.2874
 XXXZ=             80.6084 YYYX=             78.3716 YYYZ=           -196.7602 ZZZX=           -289.7351
 ZZZY=            -47.7956 XXYY=          -8085.0128 XXZZ=          -7513.2371 YYZZ=          -4797.4925
 XXYZ=            246.7563 YYXZ=           -119.0953 ZZXY=              2.5052
 N-N= 1.338610818041D+04 E-N=-3.494598568504D+04  KE= 3.431490818273D+03
 1\1\GINC-N214\FOpt\RwB97XD\GenECP\C66H58N2O1P2Ru1\VMI38398\20-Dec-2018
 \0\\#wb97xd/genecp opt=(modredundant,maxcyc=1000) scrf=(pcm,solvent=2-
 propanol)\\step 2 (attempt 1) cycle 1\\0,1\H,-1.4387458993,-0.66880884
 61,-4.9975763202\C,-0.935736423,-0.6036146668,-4.0236624398\C,-2.02094
 85409,-0.3981400927,-2.9711568479\O,-2.6896168941,0.66640435,-3.004845
 5747\C,-2.7283294451,-1.6694906958,-2.5297348223\H,-0.3733197004,-1.52
 67875635,-3.8746049275\H,-0.2452918061,0.2422824424,-4.0465780799\H,-0
 .9049798198,-0.277900141,-1.6633472897\H,-0.6490556982,0.7405334253,1.
 6106021554\N,-2.2393171376,1.677814538,-0.3628659452\N,-2.4105658327,-
 0.8745310289,0.5636842757\C,-3.3956432968,1.3822190465,0.5064073953\H,
 -1.987507327,2.6591861941,-0.2694132338\H,-2.5009524658,1.5211907927,-
 1.3478760839\C,-3.6736626935,-0.124039394,0.381907613\H,-2.4735911531,
 -1.7475217325,0.0403486808\H,-2.3094811929,-1.1451709282,1.5387706774\
 C,-4.6375043075,2.1837250315,0.1709058903\H,-3.0839120296,1.604300512,
 1.531787851\H,-3.9878850801,-0.299103601,-0.6485277074\C,-4.7642977838
 ,-0.5966869998,1.3169684281\C,-2.0546483839,-2.8000140247,-2.055575766
 6\C,-4.1197209024,-1.714983504,-2.6394799247\C,-4.1514801697,-3.966383
 6912,-1.7687071275\C,-4.8283846877,-2.8551738349,-2.2633256864\C,-2.75
 97121982,-3.9356910814,-1.6688134576\H,-0.9755366402,-2.7732507949,-1.
 9441511956\H,-2.2224469519,-4.7957700916,-1.2799305184\H,-4.7010340857
 ,-4.8520569097,-1.4643018915\H,-5.9108026856,-2.8715269794,-2.35288523
 34\H,-4.6416101308,-0.838310134,-3.0110022184\C,-5.1525703641,2.188441
 8394,-1.1303581507\C,-5.3108600617,2.8877109369,1.1694416004\C,-6.9879
 99961,3.5885720579,-0.4170637154\C,-6.4808739445,3.5869032784,0.879732
 5993\C,-6.3197349803,2.8885808076,-1.4212567625\H,-4.638630316,1.64020
 79791,-1.9180806033\H,-6.7121103905,2.8855522557,-2.4341353486\H,-7.90
 07269828,4.1309783259,-0.6454496826\H,-6.9950248808,4.1286625301,1.668
 2567405\H,-4.9209914226,2.8802997246,2.1844632926\C,-4.5671965237,-0.5
 85416682,2.7016095404\C,-5.9830260229,-1.0494726448,0.8120725922\C,-6.
 7791654762,-1.4847964902,3.0488469783\C,-6.986667292,-1.4910605545,1.6
 718080218\C,-5.5657872629,-1.0291661197,3.562895556\H,-3.62844612,-0.2
 24125426,3.1178463386\H,-5.3977925829,-1.0177867264,4.6357193014\H,-7.
 5587845523,-1.8313654876,3.7205349559\H,-7.9295026126,-1.8430826854,1.
 2637970171\H,-6.1462599134,-1.0534057126,-0.2621646534\Ru,-0.638600895
 2,0.2759894876,0.0306770552\P,1.0755316934,1.705129125,-0.3992791259\P
 ,0.7934408039,-1.3575697506,0.6646274551\C,0.6392511126,3.0978348563,-
 1.5500457328\C,1.916025769,2.6403701581,0.9574870513\C,2.5171534326,0.
 8913124734,-1.2405227228\C,-0.1185579245,-2.506892875,1.7960025497\C,1
 .6000509663,-2.5338535026,-0.5039826852\C,2.3049948485,-0.8095169759,1
 .5991814955\C,3.3556153753,0.0202804607,-0.5582847896\C,2.6416206053,1
 .0202676452,-2.6502080904\C,3.3252693575,-0.1397359643,0.9352728844\C,
 2.3924231614,-0.9913015362,3.0044376865\C,4.3238975615,-0.7536337374,-
 1.2869043926\C,3.5743165798,0.3109043494,-3.354172857\H,1.9862517345,1
 .7027581423,-3.1806296349\C,4.4361671931,0.3864804706,1.6800195443\C,3
 .4353796737,-0.4855271486,3.7300768092\H,1.6260594745,-1.5554629804,3.
 5208839255\C,4.4400026711,-0.5953528848,-2.6944242433\C,5.1722383184,-
 1.7025386674,-0.6523800395\H,3.6605011996,0.4355883315,-4.4305410725\C
 ,4.4780101533,0.227321603,3.0916582428\C,5.5097137003,1.0848921697,1.0
 585877999\H,3.4789629206,-0.6370315575,4.805543714\C,5.4036614562,-1.3
 509265629,-3.4121475954\C,6.0925877583,-2.423347485,-1.3691189814\H,5.
 0760348697,-1.8676928215,0.4144968364\C,5.5633144024,0.7683916525,3.83
 19728828\C,6.5491706099,1.5918299899,1.7948109979\H,5.4986560402,1.228
 2987472,-0.0157378174\C,6.2181171504,-2.243896283,-2.765562824\H,5.479
 9362352,-1.210175923,-4.4873579247\H,6.7241738737,-3.1461819686,-0.861
 2075172\C,6.5795505803,1.4361949512,3.2004325206\H,5.5723939263,0.6383
 007791,4.911099193\H,7.3539209715,2.1233492169,1.2956877252\H,6.951921
 4173,-2.8197381765,-3.3215636037\H,7.4066977595,1.8455003227,3.7724561
 323\C,1.151303503,4.397684586,-1.4617960345\C,-0.2888176589,2.82180767
 88,-2.5619552841\C,0.7588787447,5.3817753721,-2.3673741156\H,1.8568883
 156,4.659968385,-0.6820320146\C,-0.6781793955,3.8010501364,-3.47104005
 6\H,-0.7282813154,1.8333389116,-2.6304459127\C,-0.1527574056,5.0874893
 581,-3.3780263755\H,1.169590575,6.3833439562,-2.2779507284\H,-1.401160
 8729,3.5543780486,-4.2430379548\H,-0.4568550099,5.8564635106,-4.082073
 1411\C,3.1682951176,3.2325408617,0.7552769885\C,1.2904889508,2.8112759
 909,2.194006266\C,3.7804478506,3.9731783674,1.7606774902\H,3.680911844
 2,3.0998578333,-0.1937888573\C,1.9036768344,3.5467289007,3.2068101126\
 H,0.327955008,2.3384213459,2.3630056831\C,3.1499959495,4.1299383222,2.
 9930560883\H,4.7586644909,4.410962753,1.5871765239\H,1.4068149214,3.66
 01287288,4.1661999538\H,3.6308710238,4.6980864551,3.7840098977\C,-0.47
 55567227,-3.7986113009,1.3969913224\C,-0.6961308198,-1.9976157864,2.97
 15030649\C,-1.362891628,-4.564167991,2.1547373767\H,-0.0710871815,-4.2
 170279138,0.4814986505\C,-1.5680417337,-2.7651013285,3.7367861576\H,-0
 .4958593475,-0.9706910965,3.2635960803\C,-1.9072746205,-4.0548483635,3
 .3285916164\H,-1.6293405951,-5.5614012659,1.8169799417\H,-1.9994934266
 ,-2.3460992764,4.640985599\H,-2.5975707172,-4.6511080817,3.9172862258\
 C,2.3958935378,-3.5933690085,-0.0532044225\C,1.478839329,-2.316235851,
 -1.8735214005\C,3.0320078618,-4.4317427149,-0.9616224001\H,2.523207275
 8,-3.7614195673,1.0136284213\C,2.1212794547,-3.147781907,-2.7872231283
 \H,0.9029988917,-1.4592261178,-2.2064790935\C,2.8955674975,-4.21012086
 1,-2.3321730806\H,3.6488572503,-5.2499650405,-0.6017139196\H,2.0295051
 669,-2.9534423492,-3.8521244963\H,3.4059105447,-4.856772615,-3.0398221
 883\\Version=ES64L-G09RevD.01\State=1-A\HF=-3511.5163762\RMSD=4.577e-0
 9\RMSF=3.502e-04\Dipole=0.0937101,-1.2864974,1.3054737\Quadrupole=7.25
 43645,-3.8513545,-3.4030101,6.1852159,-10.3510951,-0.3609985\PG=C01 [X
 (C66H58N2O1P2Ru1)]\\@


 A MAN THINKING OR WORKING IS ALWAYS ALONE, 
 LET HIM BE WHERE HE WILL.

                                    -- THOREAU
 Job cpu time:       4 days 15 hours 12 minutes 46.0 seconds.
 File lengths (MBytes):  RWF=   2622 Int=      0 D2E=      0 Chk=    105 Scr=      1
 Normal termination of Gaussian 09 at Thu Dec 20 01:53:01 2018.
