
                                 *****************
                                 * O   R   C   A *
                                 *****************

           --- An Ab Initio, DFT and Semiempirical electronic structure package ---

                  #######################################################
                  #                        -***-                        #
                  #          Department of theory and spectroscopy      #
                  #               Directorship: Frank Neese             #
                  #        Max Planck Institute fuer Kohlenforschung    #
                  #                Kaiser Wilhelm Platz 1               #
                  #                 D-45470 Muelheim/Ruhr               #
                  #                      Germany                        #
                  #                                                     #
                  #                  All rights reserved                #
                  #                        -***-                        #
                  #######################################################


                         Program Version 4.2.1 -  RELEASE  -


 With contributions from (in alphabetic order):
   Daniel Aravena         : Magnetic Suceptibility
   Michael Atanasov       : Ab Initio Ligand Field Theory (pilot matlab implementation)
   Alexander A. Auer      : GIAO ZORA, VPT2
   Ute Becker             : Parallelization
   Giovanni Bistoni       : ED, misc. LED, open-shell LED, HFLD
   Martin Brehm           : Molecular dynamics
   Dmytro Bykov           : SCF Hessian
   Vijay G. Chilkuri      : MRCI spin determinant printing, contributions to CSF-ICE
   Dipayan Datta          : RHF DLPNO-CCSD density
   Achintya Kumar Dutta   : EOM-CC, STEOM-CC
   Dmitry Ganyushin       : Spin-Orbit,Spin-Spin,Magnetic field MRCI
   Miquel Garcia          : C-PCM Hessian, Gaussian charge scheme
   Yang Guo               : DLPNO-NEVPT2, CIM, IAO-localization
   Andreas Hansen         : Spin unrestricted coupled pair/coupled cluster methods
   Benjamin Helmich-Paris : CASSCF linear response (MC-RPA)
   Lee Huntington         : MR-EOM, pCC
   Robert Izsak           : Overlap fitted RIJCOSX, COSX-SCS-MP3, EOM
   Christian Kollmar      : KDIIS, OOCD, Brueckner-CCSD(T), CCSD density
   Simone Kossmann        : Meta GGA functionals, TD-DFT gradient, OOMP2, MP2 Hessian
   Martin Krupicka        : AUTO-CI
   Lucas Lang             : DCDCAS
   Dagmar Lenk            : GEPOL surface, SMD
   Dimitrios Liakos       : Extrapolation schemes; Compound Job, initial MDCI parallelization
   Dimitrios Manganas     : Further ROCIS development; embedding schemes
   Dimitrios Pantazis     : SARC Basis sets
   Taras Petrenko         : DFT Hessian,TD-DFT gradient, ASA, ECA, R-Raman, ABS, FL, XAS/XES, NRVS
   Peter Pinski           : DLPNO-MP2, DLPNO-MP2 Gradient
   Christoph Reimann      : Effective Core Potentials
   Marius Retegan         : Local ZFS, SOC
   Christoph Riplinger    : Optimizer, TS searches, QM/MM, DLPNO-CCSD(T), (RO)-DLPNO pert. Triples
   Tobias Risthaus        : Range-separated hybrids, TD-DFT gradient, RPA, STAB
   Michael Roemelt        : Original ROCIS implementation
   Masaaki Saitow         : Open-shell DLPNO-CCSD energy and density
   Barbara Sandhoefer     : DKH picture change effects
   Avijit Sen             : IP-ROCIS
   Kantharuban Sivalingam : CASSCF convergence, NEVPT2, FIC-MRCI
   Bernardo de Souza      : ESD, SOC TD-DFT
   Georgi Stoychev        : AutoAux, RI-MP2 NMR
   Willem Van den Heuvel  : Paramagnetic NMR
   Boris Wezisla          : Elementary symmetry handling
   Frank Wennmohs         : Technical directorship


 We gratefully acknowledge several colleagues who have allowed us to
 interface, adapt or use parts of their codes:
   Stefan Grimme, W. Hujo, H. Kruse,             : VdW corrections, initial TS optimization,
                  C. Bannwarth                     DFT functionals, gCP, sTDA/sTD-DF
   Ed Valeev, F. Pavosevic, A. Kumar             : LibInt (2-el integral package), F12 methods
   Garnet Chan, S. Sharma, J. Yang, R. Olivares  : DMRG
   Ulf Ekstrom                                   : XCFun DFT Library
   Mihaly Kallay                                 : mrcc  (arbitrary order and MRCC methods)
   Andreas Klamt, Michael Diedenhofen            : otool_cosmo (COSMO solvation model)
   Jiri Pittner, Ondrej Demel                    : Mk-CCSD
   Frank Weinhold                                : gennbo (NPA and NBO analysis)
   Christopher J. Cramer and Donald G. Truhlar   : smd solvation model
   Lars Goerigk                                  : TD-DFT with DH, B97 family of functionals
   V. Asgeirsson, H. Jonsson                     : NEB implementation
   FAccTs GmbH                                   : IRC, NEB, NEB-TS, Multilevel, MM, QM/MM, CI optimization
   S Lehtola, MJT Oliveira, MAL Marques          : LibXC Library


 Your calculation uses the libint2 library for the computation of 2-el integrals
 For citations please refer to: http://libint.valeyev.net

 Your ORCA version has been built with support for libXC version: 4.2.3
 For citations please refer to: https://tddft.org/programs/libxc/

 This ORCA versions uses:
   CBLAS   interface :  Fast vector & matrix operations
   LAPACKE interface :  Fast linear algebra routines


----- Orbital basis set information -----
Your calculation utilizes the basis: 6-311+G**
   H, Li - Ne  : R. Krishnan, J. S. Binkley, R. Seeger and J. A. Pople, J. Chem. Phys. 72, 650 (1980).
   Na - Ar     : A. D. McLean and G. S. Chandler J. Chem. Phys. 72, 5639, (1980).
   K  - Ca     : J.-P. Blaudeau, M. P. McGrath, L. A. Curtiss and L. Radom, J. Chem. Phys. 107, 5016 (1997).
   Ga - Kr     : L. A. Curtiss, M. P. McGrath, J.-P. Blandeau, N. E. Davis, R. C. Binning and L. Radom, J. Chem. Phys. 103, 6104 (1995).
   Pol./Diff.
   H, Li - Cl  : T. Clark, J. Chandrasekhar and P. v. R. Schleyer, J. Comp. Chem. 4, 294 (1983).
   H - Ne      : M. J. Frisch, J. A. Pople and J. S. Binkley, J. Chem. Phys. 80, 3265 (1984).

================================================================================
                                        WARNINGS
                       Please study these warnings very carefully!
================================================================================


INFO   : the flag for use of LIBINT has been found!

================================================================================
                                       INPUT FILE
================================================================================
NAME = pople.inp
|  1> #structure
|  2> ! B3LYP 6-311+G** PrintBasis
|  3> %pal
|  4>     nprocs 8
|  5> end
|  6> %MaxCore 1000
|  7> %scf
|  8>     print[p_mos] 1
|  9> end
| 10> 
| 11> *xyz 0 1
| 12> C    -1.97696  -2.32718   0.00126
| 13> C    -2.36814  -1.29554   0.85518
| 14> C    -1.67136  -0.08735   0.85440
| 15> C    -0.58210   0.08919   0.00026
| 16> C    -0.19077  -0.94241  -0.85309
| 17> C    -0.88848  -2.15056  -0.85289
| 18> H    -3.22679  -1.43483   1.52790
| 19> H    -1.98002   0.72606   1.52699
| 20> H     0.66766  -0.80358  -1.52636
| 21> H    -0.57992  -2.96360  -1.52585
| 22> H    -0.03766   1.03348  -0.00013
| 23> H    -2.52191  -3.27117   0.00170
| 24> *
| 25> 
| 26>                          ****END OF INPUT****
================================================================================

                       ****************************
                       * Single Point Calculation *
                       ****************************

---------------------------------
CARTESIAN COORDINATES (ANGSTROEM)
---------------------------------
  C     -1.976960   -2.327180    0.001260
  C     -2.368140   -1.295540    0.855180
  C     -1.671360   -0.087350    0.854400
  C     -0.582100    0.089190    0.000260
  C     -0.190770   -0.942410   -0.853090
  C     -0.888480   -2.150560   -0.852890
  H     -3.226790   -1.434830    1.527900
  H     -1.980020    0.726060    1.526990
  H      0.667660   -0.803580   -1.526360
  H     -0.579920   -2.963600   -1.525850
  H     -0.037660    1.033480   -0.000130
  H     -2.521910   -3.271170    0.001700

----------------------------
CARTESIAN COORDINATES (A.U.)
----------------------------
  NO LB      ZA    FRAG     MASS         X           Y           Z
   0 C     6.0000    0    12.011   -3.735913   -4.397733    0.002381
   1 C     6.0000    0    12.011   -4.475136   -2.448216    1.616056
   2 C     6.0000    0    12.011   -3.158413   -0.165068    1.614582
   3 C     6.0000    0    12.011   -1.100010    0.168545    0.000491
   4 C     6.0000    0    12.011   -0.360503   -1.780897   -1.612106
   5 C     6.0000    0    12.011   -1.678984   -4.063969   -1.611729
   6 H     1.0000    0     1.008   -6.097749   -2.711436    2.887313
   7 H     1.0000    0     1.008   -3.741696    1.372055    2.885593
   8 H     1.0000    0     1.008    1.261695   -1.518546   -2.884402
   9 H     1.0000    0     1.008   -1.095890   -5.600392   -2.883439
  10 H     1.0000    0     1.008   -0.071167    1.952994   -0.000246
  11 H     1.0000    0     1.008   -4.765719   -6.181615    0.003213

--------------------------------
INTERNAL COORDINATES (ANGSTROEM)
--------------------------------
 C      0   0   0     0.000000000000     0.00000000     0.00000000
 C      1   0   0     1.395163878690     0.00000000     0.00000000
 C      2   1   0     1.394713609635   120.00876051     0.00000000
 C      3   2   1     1.395424257636   119.99408772   359.94329509
 C      4   3   2     1.394827570490   119.99434769     0.03388941
 C      1   2   3     1.394831730819   119.99828974     0.03238713
 H      2   1   3     1.099651638020   119.98023045   179.92095157
 H      3   2   1     1.099674557221   120.01275007   179.96201400
 H      5   4   3     1.099758303765   120.01124609   180.00061163
 H      6   1   2     1.099599234631   120.00832967   179.98930648
 H      4   3   2     1.089999389816   119.98125416   180.00403971
 H      1   2   3     1.089994411087   119.99774482   180.02727405

---------------------------
INTERNAL COORDINATES (A.U.)
---------------------------
 C      0   0   0     0.000000000000     0.00000000     0.00000000
 C      1   0   0     2.636477642663     0.00000000     0.00000000
 C      2   1   0     2.635626757462   120.00876051     0.00000000
 C      3   2   1     2.636969687563   119.99408772   359.94329509
 C      4   3   2     2.635842112269   119.99434769     0.03388941
 C      1   2   3     2.635849974152   119.99828974     0.03238713
 H      2   1   3     2.078040438576   119.98023045   179.92095157
 H      3   2   1     2.078083749589   120.01275007   179.96201400
 H      5   4   3     2.078242007622   120.01124609   180.00061163
 H      6   1   2     2.077941410521   120.00832967   179.98930648
 H      4   3   2     2.059800332894   119.98125416   180.00403971
 H      1   2   3     2.059790924458   119.99774482   180.02727405

---------------------
BASIS SET INFORMATION
---------------------
There are 2 groups of distinct atoms

 Group   1 Type C   : 12s6p1d contracted to 5s4p1d pattern {63111/3111/1}
 Group   2 Type H   : 5s1p contracted to 3s1p pattern {311/1}

Atom   0C    basis set group =>   1
Atom   1C    basis set group =>   1
Atom   2C    basis set group =>   1
Atom   3C    basis set group =>   1
Atom   4C    basis set group =>   1
Atom   5C    basis set group =>   1
Atom   6H    basis set group =>   2
Atom   7H    basis set group =>   2
Atom   8H    basis set group =>   2
Atom   9H    basis set group =>   2
Atom  10H    basis set group =>   2
Atom  11H    basis set group =>   2

-------------------------
BASIS SET IN INPUT FORMAT
-------------------------

 # Basis set for element : H 
 NewGTO H 
 S 3 
   1      33.8650000000      0.0254938145
   2       5.0947900000      0.1903731086
   3       1.1587900000      0.8521614860
 S 1 
   1       0.3258400000      1.0000000000
 S 1 
   1       0.1027410000      1.0000000000
 P 1 
   1       0.7500000000      1.0000000000
  end;

 # Basis set for element : C 
 NewGTO C 
 S 6 
   1    4563.2400000000      0.0019666502
   2     682.0240000000      0.0152306019
   3     154.9730000000      0.0761269097
   4      44.4553000000      0.2608010331
   5      13.0290000000      0.6164620782
   6       1.8277300000      0.2210060280
 S 3 
   1      20.9642000000      0.1146600807
   2       4.8033100000      0.9199996477
   3       1.4593300000     -0.0030306821
 P 3 
   1      20.9642000000      0.0402486927
   2       4.8033100000      0.2375939567
   3       1.4593300000      0.8158538515
 S 1 
   1       0.4834560000      1.0000000000
 P 1 
   1       0.4834560000      1.0000000000
 S 1 
   1       0.1455850000      1.0000000000
 P 1 
   1       0.1455850000      1.0000000000
 S 1 
   1       0.0438000000      1.0000000000
 P 1 
   1       0.0438000000      1.0000000000
 D 1 
   1       0.6260000000      1.0000000000
  end;



           ************************************************************
           *        Program running with 8 parallel MPI-processes     *
           *              working on a common directory               *
           ************************************************************
------------------------------------------------------------------------------
                           ORCA GTO INTEGRAL CALCULATION
------------------------------------------------------------------------------

                         BASIS SET STATISTICS AND STARTUP INFO

 # of primitive gaussian shells          ...  150
 # of primitive gaussian functions       ...  258
 # of contracted shells                  ...   84
 # of contracted basis functions         ...  168
 Highest angular momentum                ...    2
 Maximum contraction depth               ...    6
 Integral package used                   ... LIBINT
 Integral threshhold            Thresh   ...  1.000e-10
 Primitive cut-off              TCut     ...  1.000e-11


------------------------------ INTEGRAL EVALUATION ----------------------------


 * One electron integrals 
 Pre-screening matrix                    ... done
 Shell pair data                         ... done (   0.001 sec)

Timings:
 Total evaluation time               ...     0.017 sec (   0.000 min)
 One electron matrix time            ...     0.047 sec (   0.001 min) =276.5%
 Schwartz matrix evaluation time     ...     0.267 sec (   0.004 min) =1570.6%



           ************************************************************
           *        Program running with 8 parallel MPI-processes     *
           *              working on a common directory               *
           ************************************************************
-------------------------------------------------------------------------------
                                 ORCA SCF
-------------------------------------------------------------------------------

------------
SCF SETTINGS
------------
Hamiltonian:
 Density Functional     Method          .... DFT(GTOs)
 Exchange Functional    Exchange        .... B88
   X-Alpha parameter    XAlpha          ....  0.666667
   Becke's b parameter  XBeta           ....  0.004200
 Correlation Functional Correlation     .... LYP
 LDA part of GGA corr.  LDAOpt          .... VWN-5
 Gradients option       PostSCFGGA      .... off
 Hybrid DFT is turned on
   Fraction HF Exchange ScalHFX         ....  0.200000
   Scaling of DF-GGA-X  ScalDFX         ....  0.720000
   Scaling of DF-GGA-C  ScalDFC         ....  0.810000
   Scaling of DF-LDA-C  ScalLDAC        ....  1.000000
   Perturbative correction              ....  0.000000
   Density functional embedding theory  .... OFF
   NL short-range parameter             ....  4.800000


General Settings:
 Integral files         IntName         .... pople
 Hartree-Fock type      HFTyp           .... RHF
 Total Charge           Charge          ....    0
 Multiplicity           Mult            ....    1
 Number of Electrons    NEL             ....   42
 Basis Dimension        Dim             ....  168
 Nuclear Repulsion      ENuc            ....    203.1203320003 Eh

Convergence Acceleration:
 DIIS                   CNVDIIS         .... on
   Start iteration      DIISMaxIt       ....    12
   Startup error        DIISStart       ....  0.200000
   # of expansion vecs  DIISMaxEq       ....     5
   Bias factor          DIISBfac        ....   1.050
   Max. coefficient     DIISMaxC        ....  10.000
 Newton-Raphson         CNVNR           .... off
 SOSCF                  CNVSOSCF        .... on
   Start iteration      SOSCFMaxIt      ....   150
   Startup grad/error   SOSCFStart      ....  0.003300
 Level Shifting         CNVShift        .... on
   Level shift para.    LevelShift      ....    0.2500
   Turn off err/grad.   ShiftErr        ....    0.0010
 Zerner damping         CNVZerner       .... off
 Static damping         CNVDamp         .... on
   Fraction old density DampFac         ....    0.7000
   Max. Damping (<1)    DampMax         ....    0.9800
   Min. Damping (>=0)   DampMin         ....    0.0000
   Turn off err/grad.   DampErr         ....    0.1000
 Fernandez-Rico         CNVRico         .... off

SCF Procedure:
 Maximum # iterations   MaxIter         ....   125
 SCF integral mode      SCFMode         .... Direct
   Integral package                     .... LIBINT
 Reset frequency        DirectResetFreq ....    20
 Integral Threshold     Thresh          ....  1.000e-10 Eh
 Primitive CutOff       TCut            ....  1.000e-11 Eh

Convergence Tolerance:
 Convergence Check Mode ConvCheckMode   .... Total+1el-Energy
 Convergence forced     ConvForced      .... 0
 Energy Change          TolE            ....  1.000e-06 Eh
 1-El. energy change                    ....  1.000e-03 Eh
 Orbital Gradient       TolG            ....  5.000e-05
 Orbital Rotation angle TolX            ....  5.000e-05
 DIIS Error             TolErr          ....  1.000e-06


Diagonalization of the overlap matrix:
Smallest eigenvalue                        ... 4.170e-06
Time for diagonalization                   ...    0.006 sec
Threshold for overlap eigenvalues          ... 1.000e-08
Number of eigenvalues below threshold      ... 0
Time for construction of square roots      ...    0.019 sec
Total time needed                          ...    0.026 sec

-------------------
DFT GRID GENERATION
-------------------

General Integration Accuracy     IntAcc      ...  4.340
Radial Grid Type                 RadialGrid  ... Gauss-Chebyshev
Angular Grid (max. acc.)         AngularGrid ... Lebedev-110
Angular grid pruning method      GridPruning ... 3 (G Style)
Weight generation scheme         WeightScheme... Becke
Basis function cutoff            BFCut       ...    1.0000e-10
Integration weight cutoff        WCut        ...    1.0000e-14
Grids for H and He will be reduced by one unit

# of grid points (after initial pruning)     ...  14700 (   0.0 sec)
# of grid points (after weights+screening)   ...  13841 (   0.0 sec)
nearest neighbour list constructed           ...    0.0 sec
Grid point re-assignment to atoms done       ...    0.0 sec
Grid point division into batches done        ...    0.0 sec
Reduced shell lists constructed in    0.0 sec

Total number of grid points                  ...    13841
Total number of batches                      ...      222
Average number of points per batch           ...       62
Average number of grid points per atom       ...     1153
Average number of shells per batch           ...    72.41 (86.21%)
Average number of basis functions per batch  ...   149.52 (89.00%)
Average number of large shells per batch     ...    62.45 (86.24%)
Average number of large basis fcns per batch ...   132.31 (88.49%)
Maximum spatial batch extension              ...  12.25,  9.76, 13.29 au
Average spatial batch extension              ...   0.37,  0.30,  0.42 au

Time for grid setup =    0.068 sec

------------------------------
INITIAL GUESS: MODEL POTENTIAL
------------------------------
Loading Hartree-Fock densities                     ... done
Calculating cut-offs                               ... done
Setting up the integral package                    ... done
Initializing the effective Hamiltonian             ... done
Starting the Coulomb interaction                   ... done (   0.0 sec)
Reading the grid                                   ... done
Mapping shells                                     ... done
Starting the XC term evaluation                    ... done (   0.0 sec)
  promolecular density results
     # of electrons  =     42.009404951
     EX              =    -32.598518282
     EC              =     -1.376590261
     EX+EC           =    -33.975108543
Transforming the Hamiltonian                       ... done (   0.0 sec)
Diagonalizing the Hamiltonian                      ... done (   0.0 sec)
Back transforming the eigenvectors                 ... done (   0.0 sec)
Now organizing SCF variables                       ... done
                      ------------------
                      INITIAL GUESS DONE (   0.3 sec)
                      ------------------
--------------
SCF ITERATIONS
--------------
ITER       Energy         Delta-E        Max-DP      RMS-DP      [F,P]     Damp
               ***  Starting incremental Fock matrix formation  ***
  0   -232.0000105378   0.000000000000 0.04382145  0.00157579  0.1317704 0.7000
  1   -232.0711678890  -0.071157351255 0.02810700  0.00120764  0.0712026 0.7000
                               ***Turning on DIIS***
  2   -232.1015847575  -0.030416868504 0.04426417  0.00231811  0.0313686 0.0000
  3   -232.1438544530  -0.042269695438 0.01731880  0.00077868  0.0373387 0.0000
  4   -232.1563121147  -0.012457661757 0.00661004  0.00033089  0.0068303 0.0000
                      *** Initiating the SOSCF procedure ***
                           *** Shutting down DIIS ***
                      *** Re-Reading the Fockian *** 
                      *** Removing any level shift *** 
ITER      Energy       Delta-E        Grad      Rot      Max-DP    RMS-DP
  5   -232.15680377  -0.0004916560  0.000905  0.000905  0.003017  0.000148
               *** Restarting incremental Fock matrix formation ***
  6   -232.15683438  -0.0000306050  0.000417  0.001195  0.002214  0.000108
  7   -232.15683648  -0.0000021013  0.000221  0.000158  0.000354  0.000017
  8   -232.15683771  -0.0000012306  0.000071  0.000091  0.000332  0.000015
                 **** Energy Check signals convergence ****
              ***Rediagonalizing the Fockian in SOSCF/NRSCF***

               *****************************************************
               *                     SUCCESS                       *
               *           SCF CONVERGED AFTER   9 CYCLES          *
               *****************************************************

Setting up the final grid:

General Integration Accuracy     IntAcc      ...  4.670
Radial Grid Type                 RadialGrid  ... Gauss-Chebyshev
Angular Grid (max. acc.)         AngularGrid ... Lebedev-302
Angular grid pruning method      GridPruning ... 3 (G Style)
Weight generation scheme         WeightScheme... Becke
Basis function cutoff            BFCut       ...    1.0000e-10
Integration weight cutoff        WCut        ...    1.0000e-14
Grids for H and He will be reduced by one unit

# of grid points (after initial pruning)     ...  57636 (   0.0 sec)
# of grid points (after weights+screening)   ...  53661 (   0.0 sec)
nearest neighbour list constructed           ...    0.0 sec
Grid point re-assignment to atoms done       ...    0.0 sec
Grid point division into batches done        ...    0.2 sec
Reduced shell lists constructed in    0.2 sec

Total number of grid points                  ...    53661
Total number of batches                      ...      842
Average number of points per batch           ...       63
Average number of grid points per atom       ...     4472
Average number of shells per batch           ...    70.09 (83.44%)
Average number of basis functions per batch  ...   144.97 (86.29%)
Average number of large shells per batch     ...    59.16 (84.40%)
Average number of large basis fcns per batch ...   124.30 (85.74%)
Maximum spatial batch extension              ...  12.09,  8.55, 13.56 au
Average spatial batch extension              ...   0.21,  0.19,  0.22 au

Final grid set up in    0.3 sec
Final integration                            ... done (   0.2 sec)
Change in XC energy                          ...     0.000497862
Integrated number of electrons               ...    42.000006703
Previous integrated no of electrons          ...    42.005954031

----------------
TOTAL SCF ENERGY
----------------

Total Energy       :         -232.15633993 Eh           -6317.29517 eV

Components:
Nuclear Repulsion  :          203.12033200 Eh            5527.18523 eV
Electronic Energy  :         -435.27667193 Eh          -11844.48041 eV
One Electron Energy:         -713.48699483 Eh          -19414.96817 eV
Two Electron Energy:          278.21032290 Eh            7570.48776 eV

Virial components:
Potential Energy   :         -463.25901526 Eh          -12605.91868 eV
Kinetic Energy     :          231.10267533 Eh            6288.62350 eV
Virial Ratio       :            2.00455929


DFT components:
N(Alpha)           :       21.000003351415 electrons
N(Beta)            :       21.000003351415 electrons
N(Total)           :       42.000006702831 electrons
E(X)               :      -26.369567453035 Eh       
E(C)               :       -1.633375069618 Eh       
E(XC)              :      -28.002942522654 Eh       
DFET-embed. en.    :        0.000000000000 Eh       

---------------
SCF CONVERGENCE
---------------

  Last Energy change         ...   -8.6740e-08  Tolerance :   1.0000e-06
  Last MAX-Density change    ...    1.0211e-04  Tolerance :   1.0000e-05
  Last RMS-Density change    ...    4.0447e-06  Tolerance :   1.0000e-06
  Last Orbital Gradient      ...    2.1520e-05  Tolerance :   5.0000e-05
  Last Orbital Rotation      ...    1.6526e-05  Tolerance :   5.0000e-05

             **** THE GBW FILE WAS UPDATED (pople.gbw) ****
             **** DENSITY FILE WAS UPDATED (pople.scfp) ****
             **** ENERGY FILE WAS UPDATED (pople.en.tmp) ****
             **** THE GBW FILE WAS UPDATED (pople.gbw) ****
             **** DENSITY FILE WAS UPDATED (pople.scfp) ****
----------------
ORBITAL ENERGIES
----------------

  NO   OCC          E(Eh)            E(eV) 
   0   2.0000     -10.177756      -276.9508 
   1   2.0000     -10.177674      -276.9486 
   2   2.0000     -10.177293      -276.9382 
   3   2.0000     -10.177113      -276.9333 
   4   2.0000     -10.176316      -276.9116 
   5   2.0000     -10.176259      -276.9101 
   6   2.0000      -0.856818       -23.3152 
   7   2.0000      -0.747942       -20.3525 
   8   2.0000      -0.747417       -20.3382 
   9   2.0000      -0.604171       -16.4403 
  10   2.0000      -0.603129       -16.4120 
  11   2.0000      -0.524418       -14.2701 
  12   2.0000      -0.460007       -12.5174 
  13   2.0000      -0.450446       -12.2573 
  14   2.0000      -0.423743       -11.5306 
  15   2.0000      -0.422807       -11.5052 
  16   2.0000      -0.370157       -10.0725 
  17   2.0000      -0.347129        -9.4458 
  18   2.0000      -0.346338        -9.4243 
  19   2.0000      -0.257285        -7.0011 
  20   2.0000      -0.257126        -6.9968 
  21   0.0000      -0.014956        -0.4070 
  22   0.0000      -0.014758        -0.4016 
  23   0.0000       0.006443         0.1753 
  24   0.0000       0.025351         0.6898 
  25   0.0000       0.025772         0.7013 
  26   0.0000       0.046958         1.2778 
  27   0.0000       0.047455         1.2913 
  28   0.0000       0.064300         1.7497 
  29   0.0000       0.071924         1.9572 
  30   0.0000       0.079352         2.1593 
  31   0.0000       0.091429         2.4879 
  32   0.0000       0.092129         2.5069 
  33   0.0000       0.101021         2.7489 
  34   0.0000       0.126819         3.4509 
  35   0.0000       0.140495         3.8231 
  36   0.0000       0.143088         3.8936 
  37   0.0000       0.143665         3.9093 
  38   0.0000       0.145035         3.9466 
  39   0.0000       0.145533         3.9602 
  40   0.0000       0.147730         4.0199 
  41   0.0000       0.168774         4.5926 
  42   0.0000       0.195275         5.3137 
  43   0.0000       0.196097         5.3361 
  44   0.0000       0.201824         5.4919 
  45   0.0000       0.206267         5.6128 
  46   0.0000       0.207626         5.6498 
  47   0.0000       0.208343         5.6693 
  48   0.0000       0.208544         5.6748 
  49   0.0000       0.225379         6.1329 
  50   0.0000       0.233601         6.3566 
  51   0.0000       0.235946         6.4204 
  52   0.0000       0.266807         7.2602 
  53   0.0000       0.283547         7.7157 
  54   0.0000       0.325185         8.8487 
  55   0.0000       0.325254         8.8506 
  56   0.0000       0.325995         8.8708 
  57   0.0000       0.326184         8.8759 
  58   0.0000       0.407729        11.0949 
  59   0.0000       0.453447        12.3389 
  60   0.0000       0.505468        13.7545 
  61   0.0000       0.525065        14.2877 
  62   0.0000       0.525916        14.3109 
  63   0.0000       0.532554        14.4915 
  64   0.0000       0.547631        14.9018 
  65   0.0000       0.549023        14.9397 
  66   0.0000       0.551811        15.0155 
  67   0.0000       0.575979        15.6732 
  68   0.0000       0.576518        15.6879 
  69   0.0000       0.606286        16.4979 
  70   0.0000       0.618923        16.8417 
  71   0.0000       0.620698        16.8901 
  72   0.0000       0.675128        18.3712 
  73   0.0000       0.691133        18.8067 
  74   0.0000       0.691982        18.8298 
  75   0.0000       0.719908        19.5897 
  76   0.0000       0.722591        19.6627 
  77   0.0000       0.730337        19.8735 
  78   0.0000       0.776728        21.1358 
  79   0.0000       0.825670        22.4676 
  80   0.0000       0.827067        22.5056 
  81   0.0000       0.827138        22.5076 
  82   0.0000       0.827610        22.5204 
  83   0.0000       0.855630        23.2829 
  84   0.0000       0.856926        23.3181 
  85   0.0000       0.860010        23.4021 
  86   0.0000       0.872484        23.7415 
  87   0.0000       0.939757        25.5721 
  88   0.0000       1.012472        27.5508 
  89   0.0000       1.013346        27.5745 
  90   0.0000       1.015763        27.6403 
  91   0.0000       1.080010        29.3886 
  92   0.0000       1.080249        29.3951 
  93   0.0000       1.140918        31.0460 
  94   0.0000       1.141024        31.0488 
  95   0.0000       1.275398        34.7054 
  96   0.0000       1.295659        35.2567 
  97   0.0000       1.460690        39.7474 
  98   0.0000       1.493542        40.6414 
  99   0.0000       1.495579        40.6968 
 100   0.0000       1.506264        40.9875 
 101   0.0000       1.565940        42.6114 
 102   0.0000       1.568835        42.6902 
 103   0.0000       1.569870        42.7183 
 104   0.0000       1.640070        44.6286 
 105   0.0000       1.640368        44.6367 
 106   0.0000       1.661891        45.2224 
 107   0.0000       1.662770        45.2463 
 108   0.0000       1.709811        46.5263 
 109   0.0000       1.765368        48.0381 
 110   0.0000       1.769593        48.1531 
 111   0.0000       1.799694        48.9722 
 112   0.0000       1.799854        48.9765 
 113   0.0000       1.839852        50.0649 
 114   0.0000       1.928348        52.4730 
 115   0.0000       1.928709        52.4828 
 116   0.0000       1.944005        52.8991 
 117   0.0000       1.944202        52.9044 
 118   0.0000       1.962514        53.4027 
 119   0.0000       1.962731        53.4086 
 120   0.0000       2.012716        54.7688 
 121   0.0000       2.013105        54.7794 
 122   0.0000       2.071515        56.3688 
 123   0.0000       2.075964        56.4898 
 124   0.0000       2.312927        62.9379 
 125   0.0000       2.345043        63.8119 
 126   0.0000       2.348412        63.9035 
 127   0.0000       2.377738        64.7015 
 128   0.0000       2.383953        64.8706 
 129   0.0000       2.394390        65.1547 
 130   0.0000       2.394918        65.1690 
 131   0.0000       2.604038        70.8595 
 132   0.0000       2.610671        71.0400 
 133   0.0000       2.637904        71.7810 
 134   0.0000       2.651025        72.1381 
 135   0.0000       2.667932        72.5981 
 136   0.0000       2.713502        73.8381 
 137   0.0000       2.714874        73.8755 
 138   0.0000       2.751259        74.8656 
 139   0.0000       2.753451        74.9252 
 140   0.0000       2.772645        75.4475 
 141   0.0000       2.790858        75.9431 
 142   0.0000       2.792203        75.9797 
 143   0.0000       2.887597        78.5755 
 144   0.0000       2.888421        78.5979 
 145   0.0000       2.893299        78.7307 
 146   0.0000       2.910375        79.1953 
 147   0.0000       2.914141        79.2978 
 148   0.0000       3.077107        83.7323 
 149   0.0000       3.104658        84.4820 
 150   0.0000       3.337559        90.8196 
 151   0.0000       3.338360        90.8414 
 152   0.0000       3.469844        94.4193 
 153   0.0000       3.474393        94.5430 
 154   0.0000       3.487929        94.9114 
 155   0.0000       3.656592        99.5009 
 156   0.0000       3.958876       107.7265 
 157   0.0000       3.968903       107.9994 
 158   0.0000       4.062251       110.5395 
 159   0.0000       4.133999       112.4918 
 160   0.0000       4.140259       112.6622 
 161   0.0000       4.843330       131.7937 
 162   0.0000      23.562239       641.1611 
 163   0.0000      23.947690       651.6498 
 164   0.0000      23.953414       651.8055 
 165   0.0000      24.082123       655.3079 
 166   0.0000      24.085733       655.4061 
 167   0.0000      24.192620       658.3147 
------------------
MOLECULAR ORBITALS
------------------
                      0         1         2         3         4         5   
                 -10.17776 -10.17767 -10.17729 -10.17711 -10.17632 -10.17626
                   2.00000   2.00000   2.00000   2.00000   2.00000   2.00000
                  --------  --------  --------  --------  --------  --------
  0C   1s         0.104491 -0.012239  0.164608  0.012221 -0.308418 -0.428270
  0C   2s         0.086224 -0.010084  0.135554  0.010071 -0.253799 -0.352310
  0C   1pz        0.000018 -0.000577 -0.000051 -0.000423 -0.000005 -0.000009
  0C   1px        0.000176  0.000487  0.000151  0.000377  0.000081  0.000133
  0C   1py        0.000341 -0.000311  0.000159 -0.000194  0.000132  0.000214
  0C   3s         0.002990 -0.000402  0.005586  0.000381 -0.010300 -0.015379
  0C   2pz       -0.000056  0.002591  0.000234  0.001486  0.000016  0.000039
  0C   2px       -0.000940 -0.002211 -0.000429 -0.001343 -0.000250 -0.000459
  0C   2py       -0.001741  0.001356 -0.000275  0.000647 -0.000402 -0.000718
  0C   4s        -0.001050 -0.000899  0.007024 -0.000140  0.003475  0.024182
  0C   3pz        0.000018 -0.000872 -0.000083 -0.000476 -0.000004 -0.000021
  0C   3px        0.000739  0.000400  0.003056  0.000443  0.000620  0.006721
  0C   3py        0.001318 -0.001057  0.005129 -0.000183  0.001068  0.011608
  0C   5s        -0.005946 -0.001438  0.014781 -0.000095 -0.015761  0.010978
  0C   4pz       -0.000051  0.001381  0.000126  0.001065  0.000011  0.000025
  0C   4px       -0.000044 -0.001398  0.001916 -0.000896 -0.001750  0.000961
  0C   4py       -0.000179  0.000350  0.003572  0.000579 -0.003010  0.001713
  0C   1dz2      -0.000383  0.000015 -0.000158 -0.000028  0.000236  0.000302
  0C   1dxz       0.000587  0.000642  0.000243  0.000406  0.000984  0.001362
  0C   1dyz      -0.000373  0.001193  0.000000  0.000655 -0.000558 -0.000762
  0C   1dx2y2    -0.000307 -0.001160 -0.000243 -0.000691  0.000197  0.000244
  0C   1dxy       0.000589 -0.000701  0.000176 -0.000344 -0.000357 -0.000461
  1C   1s         0.278228 -0.303863  0.237088 -0.270164  0.049945  0.124168
  1C   2s         0.229148 -0.250072  0.195042 -0.222224  0.041008  0.102030
  1C   1pz       -0.000067 -0.000104 -0.000150 -0.000082  0.000260  0.000347
  1C   1px        0.000182 -0.000082 -0.000181  0.000265 -0.000097 -0.000186
  1C   1py        0.000176 -0.000345 -0.000621  0.000303  0.000351  0.000370
  1C   3s         0.008901 -0.010677  0.008514 -0.009311  0.001841  0.004748
  1C   2pz        0.000521  0.000665  0.000720  0.000418 -0.001064 -0.001239
  1C   2px       -0.001000  0.000100  0.000763 -0.001100  0.000584  0.000496
  1C   2py       -0.000684  0.001498  0.002772 -0.001077 -0.001117 -0.001619
  1C   4s        -0.004507  0.006240 -0.013823  0.006068  0.001471 -0.019055
  1C   3pz        0.000306 -0.001355  0.004258 -0.002007 -0.000036  0.007588
  1C   3px       -0.000279  0.001406 -0.005982  0.002742  0.000291 -0.009333
  1C   3py        0.000127 -0.000272 -0.001848  0.000737  0.000432 -0.000986
  1C   5s         0.003171 -0.005643 -0.005768 -0.013005  0.010189 -0.017657
  1C   4pz       -0.001140  0.001525  0.001177  0.001293 -0.001463  0.002233
  1C   4px        0.001196 -0.001430 -0.000611 -0.002066  0.001285 -0.003410
  1C   4py       -0.000205  0.000566  0.001303 -0.000998 -0.000703 -0.001437
  1C   1dz2       0.000117 -0.000181 -0.000821  0.000626  0.000057  0.000025
  1C   1dxz      -0.000828  0.000727 -0.000266  0.000562 -0.000207 -0.000658
  1C   1dyz       0.000124 -0.000682 -0.000364 -0.000497  0.000727  0.001114
  1C   1dx2y2     0.000369  0.000038 -0.000324  0.000672 -0.000406 -0.000527
  1C   1dxy      -0.000024  0.000387  0.001453 -0.000861 -0.000349 -0.000359
  2C   1s         0.257025 -0.263301 -0.277802  0.289516  0.101210 -0.101147
  2C   2s         0.211705 -0.216703 -0.228541  0.238173  0.083144 -0.083131
  2C   1pz       -0.000080 -0.000126  0.000127  0.000060  0.000371 -0.000229
  2C   1px       -0.000061  0.000325 -0.000395  0.000141 -0.000476  0.000262
  2C   1py       -0.000271  0.000314 -0.000427  0.000363 -0.000084 -0.000004
  2C   3s         0.008193 -0.009197 -0.009976  0.009887  0.003772 -0.003881
  2C   2pz        0.000587  0.000772 -0.000570 -0.000293 -0.001452  0.000773
  2C   2px        0.000065 -0.001551  0.001764 -0.000459  0.001763 -0.001102
  2C   2py        0.001293 -0.001144  0.001918 -0.001384  0.000148 -0.000361
  2C   4s        -0.004445  0.003419  0.014514 -0.006366 -0.005885  0.018306
  2C   3pz        0.000280 -0.000457 -0.004401  0.001970  0.002831 -0.007064
  2C   3px       -0.000237  0.000613  0.001525 -0.000712 -0.001645  0.003476
  2C   3py        0.000152  0.000146 -0.006184  0.002715  0.002824 -0.008142
  2C   5s         0.001405 -0.007458  0.004672  0.012862  0.003310  0.020091
  2C   4pz       -0.000931  0.001812 -0.000916 -0.001325 -0.000572 -0.002582
  2C   4px        0.000690 -0.001474  0.001220  0.000180  0.000992  0.000863
  2C   4py       -0.000672  0.001082  0.000275 -0.002346  0.000576 -0.003686
  2C   1dz2       0.000155 -0.000307  0.000782 -0.000619  0.000045 -0.000012
  2C   1dxz      -0.000436  0.000971 -0.000026 -0.000710 -0.001177  0.000948
  2C   1dyz       0.000642 -0.000221 -0.000430  0.000307 -0.000156 -0.000083
  2C   1dx2y2    -0.000157 -0.000523  0.001013 -0.000461  0.000667 -0.000359
  2C   1dxy      -0.000405  0.000316 -0.000977  0.000970  0.000293 -0.000182
  3C   1s         0.110849  0.009897 -0.161551  0.010069 -0.444046  0.284758
  3C   2s         0.091461  0.008152 -0.133028  0.008298 -0.365366  0.234222
  3C   1pz       -0.000030 -0.000590 -0.000057  0.000402  0.000006 -0.000005
  3C   1px       -0.000171  0.000503  0.000148 -0.000358 -0.000123  0.000092
  3C   1py       -0.000355 -0.000310  0.000142  0.000185 -0.000203  0.000150
  3C   3s         0.003204  0.000331 -0.005504  0.000311 -0.015224  0.010508
  3C   2pz        0.000109  0.002635  0.000252 -0.001391 -0.000014  0.000018
  3C   2px        0.000903 -0.002272 -0.000403  0.001257  0.000389 -0.000322
  3C   2py        0.001785  0.001342 -0.000194 -0.000608  0.000644 -0.000520
  3C   4s        -0.000691  0.000906 -0.007032 -0.000167  0.012175 -0.021194
  3C   3pz       -0.000036 -0.000889 -0.000083  0.000445  0.000004 -0.000004
  3C   3px       -0.000867  0.000437  0.003014 -0.000400 -0.003058  0.006001
  3C   3py       -0.001577 -0.001021  0.005060  0.000197 -0.005294  0.010399
  3C   5s        -0.005288  0.001605 -0.015047 -0.000195 -0.010559 -0.016007
  3C   4pz        0.000079  0.001418  0.000133 -0.001015 -0.000009  0.000003
  3C   4px       -0.000070 -0.001430  0.001915  0.000871  0.001258  0.001547
  3C   4py        0.000037  0.000356  0.003587 -0.000524  0.002162  0.002692
  3C   1dz2      -0.000388 -0.000006  0.000143 -0.000025  0.000332 -0.000196
  3C   1dxz       0.000583 -0.000668 -0.000219  0.000379  0.001412 -0.000898
  3C   1dyz      -0.000403 -0.001205 -0.000026  0.000614 -0.000806  0.000507
  3C   1dx2y2    -0.000289  0.001189  0.000239 -0.000646  0.000280 -0.000160
  3C   1dxy       0.000612  0.000700 -0.000149 -0.000324 -0.000497  0.000295
  4C   1s         0.294949  0.306290 -0.221669 -0.262410  0.093314 -0.096660
  4C   2s         0.242905  0.252061 -0.182348 -0.215843  0.076648 -0.079437
  4C   1pz        0.000070 -0.000108 -0.000150  0.000076 -0.000369  0.000227
  4C   1px       -0.000176 -0.000068 -0.000185 -0.000270  0.000160 -0.000138
  4C   1py       -0.000158 -0.000330 -0.000624 -0.000321 -0.000462  0.000215
  4C   3s         0.009498  0.010776 -0.008005 -0.009036  0.003506 -0.003724
  4C   2pz       -0.000532  0.000691  0.000708 -0.000385  0.001450 -0.000766
  4C   2px        0.000967  0.000037  0.000784  0.001109 -0.000732  0.000249
  4C   2py        0.000607  0.001445  0.002779  0.001153  0.001634 -0.001102
  4C   4s        -0.005259 -0.006328  0.013545  0.005997 -0.005716  0.018242
  4C   3pz       -0.000529 -0.001409  0.004215  0.002002 -0.002784  0.007069
  4C   3px        0.000578  0.001487 -0.005928 -0.002753  0.003194 -0.008780
  4C   3py       -0.000056 -0.000246 -0.001830 -0.000761 -0.000040 -0.001053
  4C   5s         0.003041  0.006006  0.006066 -0.012752  0.002978  0.020165
  4C   4pz        0.001122  0.001536  0.001236 -0.001230  0.000537  0.002609
  4C   4px       -0.001198 -0.001475 -0.000685  0.002015  0.000063 -0.003646
  4C   4py        0.000173  0.000527  0.001291  0.001028  0.001184 -0.001095
  4C   1dz2       0.000088  0.000157  0.000814  0.000639  0.000060 -0.000004
  4C   1dxz      -0.000856 -0.000727  0.000224  0.000540 -0.000437  0.000536
  4C   1dyz       0.000128  0.000696  0.000376 -0.000470  0.001088 -0.000771
  4C   1dx2y2     0.000352 -0.000070  0.000326  0.000671 -0.000575  0.000342
  4C   1dxy       0.000025 -0.000358 -0.001440 -0.000888 -0.000455  0.000208
  5C   1s         0.251100  0.247158  0.284842  0.301663  0.056097  0.132044
  5C   2s         0.206832  0.203417  0.234344  0.248170  0.046068  0.108510
  5C   1pz        0.000073 -0.000126  0.000130 -0.000063 -0.000262 -0.000351
  5C   1px        0.000085  0.000328 -0.000388 -0.000135  0.000349  0.000421
  5C   1py        0.000295  0.000319 -0.000409 -0.000356  0.000081  0.000028
  5C   3s         0.007977  0.008664  0.010190  0.010314  0.002055  0.005025
  5C   2pz       -0.000546  0.000778 -0.000591  0.000315  0.001074  0.001263
  5C   2px       -0.000174 -0.001567  0.001744  0.000422 -0.001247 -0.001688
  5C   2py       -0.001396 -0.001161  0.001835  0.001358 -0.000011 -0.000397
  5C   4s        -0.003879 -0.003092 -0.014618 -0.006630  0.001325 -0.019190
  5C   3pz       -0.000094 -0.000382 -0.004398 -0.002032 -0.000011 -0.007623
  5C   3px        0.000180  0.000581  0.001533  0.000748  0.000242  0.003847
  5C   3py        0.000126  0.000244 -0.006147 -0.002770  0.000397 -0.008593
  5C   5s         0.001796  0.006952 -0.004739  0.013072  0.010507 -0.017445
  5C   4pz        0.001014  0.001743 -0.000884  0.001382  0.001488 -0.002183
  5C   4px       -0.000773 -0.001445  0.001179 -0.000219 -0.001246  0.000416
  5C   4py        0.000689  0.000979  0.000270  0.002386  0.000820 -0.003649
  5C   1dz2       0.000195  0.000326 -0.000764 -0.000615  0.000041  0.000030
  5C   1dxz      -0.000459 -0.000938  0.000012 -0.000743 -0.000749 -0.001323
  5C   1dyz       0.000628  0.000195  0.000453  0.000321 -0.000179  0.000020
  5C   1dx2y2    -0.000103  0.000542 -0.001006 -0.000451  0.000493  0.000585
  5C   1dxy      -0.000452 -0.000340  0.000945  0.000968  0.000203  0.000276
  6H   1s         0.000011 -0.000188  0.000254 -0.000291  0.000118  0.000294
  6H   2s        -0.002396  0.002148 -0.002330  0.001838  0.000040 -0.002064
  6H   3s         0.002445 -0.001006 -0.000703  0.000119 -0.000398 -0.002476
  6H   1pz        0.000860 -0.000694  0.000541 -0.000486 -0.000039  0.000165
  6H   1px       -0.001107  0.000915 -0.000640  0.000604  0.000028 -0.000244
  6H   1py       -0.000194  0.000193 -0.000024  0.000072 -0.000030 -0.000089
  7H   1s        -0.000010 -0.000142 -0.000284  0.000281  0.000227 -0.000232
  7H   2s        -0.002283  0.001715  0.002586 -0.002033 -0.000789  0.001962
  7H   3s         0.002408 -0.001179  0.000602  0.000148 -0.001281  0.002135
  7H   1pz        0.000825 -0.000601 -0.000625  0.000562  0.000042 -0.000179
  7H   1px       -0.000369  0.000240  0.000332 -0.000275  0.000012  0.000059
  7H   1py        0.001013 -0.000789 -0.000676  0.000650  0.000106 -0.000255
  8H   1s         0.000027  0.000197 -0.000249 -0.000287  0.000220 -0.000230
  8H   2s        -0.002541 -0.002150  0.002205  0.001790 -0.000732  0.001929
  8H   3s         0.002430  0.000946  0.000799  0.000158 -0.001287  0.002158
  8H   1pz       -0.000898 -0.000690  0.000499  0.000469 -0.000026  0.000167
  8H   1px        0.001152  0.000908 -0.000585 -0.000580  0.000066 -0.000235
  8H   1py        0.000199  0.000191 -0.000015 -0.000066  0.000061 -0.000073
  9H   1s        -0.000019  0.000132  0.000280  0.000289  0.000125  0.000300
  9H   2s        -0.002209 -0.001590 -0.002656 -0.002122 -0.000001 -0.002118
  9H   3s         0.002463  0.001118 -0.000506  0.000185 -0.000403 -0.002452
  9H   1pz       -0.000812 -0.000562 -0.000652 -0.000590  0.000029 -0.000183
  9H   1px        0.000360  0.000221  0.000343  0.000287 -0.000035  0.000051
  9H   1py       -0.001001 -0.000742 -0.000711 -0.000685 -0.000002 -0.000278
 10H   1s        -0.000186 -0.000005  0.000027 -0.000007 -0.000347  0.000341
 10H   2s        -0.001315  0.000013  0.000449 -0.000108  0.003688 -0.003269
 10H   3s         0.002572  0.000199 -0.002260  0.000146 -0.000654 -0.001555
 10H   1pz        0.000003  0.000081  0.000008 -0.000039  0.000001 -0.000000
 10H   1px        0.000478 -0.000048 -0.000369  0.000068 -0.000830  0.000520
 10H   1py        0.000835  0.000078 -0.000624  0.000039 -0.001439  0.000903
 11H   1s        -0.000183  0.000010 -0.000036 -0.000007 -0.000197 -0.000445
 11H   2s        -0.001302  0.000014 -0.000492 -0.000121  0.002224  0.004395
 11H   3s         0.002467 -0.000260  0.002359  0.000168 -0.001189  0.001208
 11H   1pz       -0.000001  0.000079  0.000007  0.000042 -0.000000  0.000001
 11H   1px       -0.000465 -0.000036 -0.000386 -0.000076  0.000581  0.000788
 11H   1py       -0.000808  0.000096 -0.000654 -0.000047  0.001007  0.001368
                      6         7         8         9        10        11   
                  -0.85682  -0.74794  -0.74742  -0.60417  -0.60313  -0.52442
                   2.00000   2.00000   2.00000   2.00000   2.00000   2.00000
                  --------  --------  --------  --------  --------  --------
  0C   1s         0.051872 -0.072525  0.001320  0.056855 -0.002061 -0.005057
  0C   2s         0.079869 -0.112260  0.002043  0.089008 -0.003227 -0.007737
  0C   1pz        0.000017  0.000635  0.036965 -0.002536 -0.068681  0.000037
  0C   1px       -0.014635  0.005577 -0.032147  0.017142  0.058938 -0.045969
  0C   1py       -0.025315  0.010891  0.018307  0.024683 -0.035290 -0.079577
  0C   3s        -0.206191  0.295720 -0.005425 -0.240183  0.008773  0.020490
  0C   2pz        0.000015  0.000926  0.054421 -0.003469 -0.095671  0.000077
  0C   2px       -0.021644  0.008395 -0.047320  0.023911  0.082264 -0.063741
  0C   2py       -0.037467  0.016464  0.026974  0.034461 -0.049287 -0.110217
  0C   4s        -0.097178  0.156404 -0.002293 -0.157904  0.005392  0.033924
  0C   3pz        0.000213  0.000296  0.017684 -0.002283 -0.039381 -0.001338
  0C   3px       -0.004916  0.001876 -0.015286  0.009937  0.033387 -0.032395
  0C   3py       -0.008205  0.003973  0.009481  0.013107 -0.020271 -0.058252
  0C   5s         0.005518 -0.011989 -0.008520  0.154740 -0.005268 -0.000455
  0C   4pz       -0.000497 -0.001008 -0.014810  0.004312  0.003194  0.004863
  0C   4px        0.003391 -0.008412  0.012121  0.019009 -0.003590 -0.003973
  0C   4py        0.005270 -0.017107 -0.008960  0.041205  0.000238  0.000882
  0C   1dz2       0.001888  0.000052 -0.000022  0.000428  0.000015  0.003241
  0C   1dxz       0.007356 -0.008966  0.004728  0.004682 -0.003570 -0.001668
  0C   1dyz      -0.004273  0.005371  0.007845 -0.002981 -0.005842  0.000940
  0C   1dx2y2     0.001603 -0.000065 -0.007964  0.000572  0.005910  0.002824
  0C   1dxy      -0.002803 -0.000218 -0.004589 -0.000525  0.003435 -0.004920
  1C   1s         0.051758 -0.037212 -0.062123 -0.026609  0.050259 -0.005886
  1C   2s         0.079706 -0.057613 -0.096185 -0.041669  0.078713 -0.009056
  1C   1pz        0.018063 -0.019851  0.002772  0.037846  0.000737  0.056492
  1C   1px       -0.023011 -0.000498  0.012051  0.001094  0.025361 -0.071203
  1C   1py       -0.003709 -0.040662  0.026462  0.077697  0.045431 -0.010381
  1C   3s        -0.206035  0.152053  0.253866  0.112602 -0.212864  0.024119
  1C   2pz        0.026672 -0.029256  0.003868  0.052654  0.000822  0.078359
  1C   2px       -0.033794 -0.000783  0.017701  0.001268  0.035674 -0.099097
  1C   2py       -0.005517 -0.059690  0.038924  0.108184  0.063282 -0.014312
  1C   4s        -0.095438  0.078418  0.130727  0.073274 -0.139739  0.037301
  1C   3pz        0.005585 -0.008177  0.003147  0.021145 -0.000094  0.040673
  1C   3px       -0.007230 -0.001442  0.003643  0.000759  0.014107 -0.051574
  1C   3py       -0.000767 -0.019753  0.011863  0.042428  0.024517 -0.009437
  1C   5s        -0.006525  0.024778  0.028006 -0.069259  0.127810  0.012355
  1C   4pz       -0.003074  0.007431  0.003320  0.015701 -0.020022  0.002187
  1C   4px        0.003692 -0.001902 -0.009806 -0.015147  0.030888 -0.000505
  1C   4py       -0.000187  0.012201 -0.010063  0.006159  0.013047  0.005730
  1C   1dz2       0.002544  0.002375 -0.005446 -0.004017 -0.000147 -0.001183
  1C   1dxz       0.006358 -0.004149 -0.001974  0.000288  0.003398  0.004665
  1C   1dyz      -0.004403  0.008928  0.001664 -0.003046 -0.005111  0.002021
  1C   1dx2y2     0.002750 -0.002813 -0.005136 -0.001332  0.002237 -0.004562
  1C   1dxy      -0.003466 -0.006425  0.007878  0.007208  0.001600 -0.000314
  2C   1s         0.051735  0.034990 -0.063405 -0.030199 -0.048199 -0.005886
  2C   2s         0.079667  0.054169 -0.098158 -0.047281 -0.075480 -0.009054
  2C   1pz        0.018002  0.019939  0.002126  0.037740 -0.003509  0.056450
  2C   1px       -0.008268 -0.035475 -0.015629 -0.064593  0.031390 -0.026639
  2C   1py        0.021812 -0.021538 -0.022935 -0.036435  0.047394  0.066837
  2C   3s        -0.205871 -0.142914  0.258827  0.127569  0.204009  0.024138
  2C   2pz        0.026662  0.029391  0.002856  0.052574 -0.004712  0.078266
  2C   2px       -0.012186 -0.052215 -0.022892 -0.089977  0.043756 -0.036936
  2C   2py        0.032082 -0.031750 -0.033767 -0.050581  0.066504  0.093059
  2C   4s        -0.096286 -0.073764  0.137496  0.084886  0.134506  0.037354
  2C   3pz        0.005154  0.008369  0.002552  0.021592 -0.001678  0.042058
  2C   3px       -0.001984 -0.016415 -0.008610 -0.037361  0.016712 -0.020733
  2C   3py        0.007018 -0.011267 -0.010307 -0.021273  0.025591  0.047507
  2C   5s         0.002698 -0.019885 -0.000632 -0.085063 -0.122811  0.004172
  2C   4pz       -0.003127 -0.007992  0.005418  0.013935  0.019029 -0.001696
  2C   4px        0.000059  0.012381  0.004477 -0.004090 -0.003606  0.006139
  2C   4py       -0.005813  0.005424  0.018719  0.020218  0.032270  0.006420
  2C   1dz2       0.002538 -0.002574 -0.005395 -0.004010  0.000431 -0.001186
  2C   1dxz       0.006987  0.009703 -0.002826  0.002274 -0.006326  0.000586
  2C   1dyz      -0.003341  0.000889  0.000865  0.001321  0.000303 -0.005108
  2C   1dx2y2     0.001669 -0.007100 -0.004080 -0.005450  0.002875  0.002579
  2C   1dxy      -0.004130  0.001047  0.008388  0.004854  0.000810  0.003809
  3C   1s         0.051841  0.072537 -0.001265  0.056866 -0.002097 -0.005070
  3C   2s         0.079821  0.112279 -0.001958  0.089023 -0.003285 -0.007759
  3C   1pz        0.000022  0.000722  0.036935  0.002520  0.068630 -0.000019
  3C   1px        0.014599  0.005517 -0.032127 -0.017119 -0.058918  0.045907
  3C   1py        0.025322  0.010940  0.018319 -0.024701  0.035341  0.079575
  3C   3s        -0.206075 -0.295779  0.005204 -0.240231  0.008942  0.020551
  3C   2pz        0.000020  0.001018  0.054383  0.003432  0.095610 -0.000065
  3C   2px        0.021611  0.008335 -0.047301 -0.023869 -0.082256  0.063668
  3C   2py        0.037470  0.016525  0.026979 -0.034489  0.049342  0.110214
  3C   4s        -0.097128 -0.156449  0.002190 -0.157977  0.005539  0.033908
  3C   3pz       -0.000204  0.000319  0.017665  0.002244  0.039351  0.001346
  3C   3px        0.004909  0.001867 -0.015283 -0.009888 -0.033371  0.032370
  3C   3py        0.008202  0.003990  0.009477 -0.013117  0.020300  0.058280
  3C   5s         0.005591  0.011978  0.008607  0.154610 -0.005251 -0.000346
  3C   4pz        0.000494 -0.001012 -0.014775 -0.004303 -0.003188 -0.004857
  3C   4px       -0.003397 -0.008405  0.012108 -0.018989  0.003590  0.003973
  3C   4py       -0.005281 -0.017106 -0.008989 -0.041179 -0.000214 -0.000894
  3C   1dz2       0.001893 -0.000043  0.000020  0.000439  0.000011  0.003239
  3C   1dxz       0.007349  0.008960 -0.004720  0.004681 -0.003575 -0.001667
  3C   1dyz      -0.004275 -0.005382 -0.007845 -0.002981 -0.005838  0.000936
  3C   1dx2y2     0.001608  0.000078  0.007962  0.000575  0.005914  0.002823
  3C   1dxy      -0.002798  0.000225  0.004590 -0.000519  0.003440 -0.004916
  4C   1s         0.051745  0.037284  0.062081 -0.026640  0.050253 -0.005884
  4C   2s         0.079686  0.057726  0.096120 -0.041718  0.078703 -0.009054
  4C   1pz       -0.018050 -0.019871  0.002772 -0.037893 -0.000724 -0.056492
  4C   1px        0.023025 -0.000469  0.012064 -0.001090 -0.025317  0.071170
  4C   1py        0.003671 -0.040700  0.026370 -0.077703 -0.045360  0.010330
  4C   3s        -0.205988 -0.152352 -0.253700  0.112746 -0.212837  0.024115
  4C   2pz       -0.026647 -0.029271  0.003871 -0.052713 -0.000793 -0.078357
  4C   2px        0.033814 -0.000754  0.017724 -0.001278 -0.035623  0.099056
  4C   2py        0.005487 -0.059731  0.038821 -0.108205 -0.063172  0.014260
  4C   4s        -0.095425 -0.078559 -0.130655  0.073405 -0.139718  0.037352
  4C   3pz       -0.005577 -0.008175  0.003143 -0.021164  0.000107 -0.040656
  4C   3px        0.007241 -0.001445  0.003658 -0.000763 -0.014083  0.051522
  4C   3py        0.000764 -0.019763  0.011839 -0.042443 -0.024448  0.009386
  4C   5s        -0.006601 -0.024732 -0.028062 -0.069149  0.127669  0.012284
  4C   4pz        0.003056  0.007462  0.003309 -0.015706  0.019993 -0.002214
  4C   4px       -0.003686 -0.001915 -0.009788  0.015143 -0.030874  0.000489
  4C   4py        0.000205  0.012211 -0.010027 -0.006177 -0.013023 -0.005736
  4C   1dz2       0.002548 -0.002370  0.005438 -0.004011 -0.000149 -0.001172
  4C   1dxz       0.006355  0.004154  0.001974  0.000288  0.003397  0.004664
  4C   1dyz      -0.004406 -0.008936 -0.001673 -0.003034 -0.005107  0.002021
  4C   1dx2y2     0.002743  0.002823  0.005124 -0.001324  0.002241 -0.004572
  4C   1dxy      -0.003464  0.006431 -0.007869  0.007220  0.001601 -0.000316
  5C   1s         0.051755 -0.035019  0.063384 -0.030230 -0.048167 -0.005888
  5C   2s         0.079698 -0.054214  0.098126 -0.047331 -0.075429 -0.009058
  5C   1pz       -0.018048  0.019978  0.002078 -0.037763  0.003522 -0.056526
  5C   1px        0.008303 -0.035528 -0.015572  0.064633 -0.031414  0.026659
  5C   1py       -0.021768 -0.021580 -0.022848  0.036403 -0.047387 -0.066818
  5C   3s        -0.205947  0.143025 -0.258738  0.127713  0.203857  0.024148
  5C   2pz       -0.026715  0.029429  0.002798 -0.052594  0.004719 -0.078365
  5C   2px        0.012214 -0.052269 -0.022837  0.090030 -0.043771  0.036951
  5C   2py       -0.032039 -0.031806 -0.033672  0.050553 -0.066494 -0.093035
  5C   4s        -0.096308  0.073802 -0.137440  0.084986  0.134376  0.037305
  5C   3pz       -0.005167  0.008372  0.002539 -0.021633  0.001670 -0.042132
  5C   3px        0.001988 -0.016430 -0.008599  0.037409 -0.016701  0.020751
  5C   3py       -0.007003 -0.011290 -0.010280  0.021261 -0.025559 -0.047528
  5C   5s         0.002789  0.019850  0.000602 -0.085311 -0.122628  0.004240
  5C   4pz        0.003156 -0.008007  0.005424 -0.013978 -0.019022  0.001712
  5C   4px       -0.000057  0.012406  0.004494  0.004083  0.003576 -0.006137
  5C   4py        0.005814  0.005422  0.018709 -0.020273 -0.032229 -0.006423
  5C   1dz2       0.002528  0.002583  0.005385 -0.004014  0.000438 -0.001197
  5C   1dxz       0.006993 -0.009711  0.002830  0.002273 -0.006326  0.000590
  5C   1dyz      -0.003344 -0.000895 -0.000869  0.001333  0.000300 -0.005108
  5C   1dx2y2     0.001659  0.007105  0.004063 -0.005438  0.002879  0.002570
  5C   1dxy      -0.004134 -0.001047 -0.008387  0.004859  0.000808  0.003805
  6H   1s        -0.020464  0.024286  0.040535  0.031872 -0.061289  0.068676
  6H   2s        -0.024212  0.029231  0.048962  0.041491 -0.079337  0.089990
  6H   3s         0.006178 -0.001752 -0.002996  0.004782 -0.009731  0.014888
  6H   1pz        0.002939 -0.004064 -0.004847 -0.001875  0.007395 -0.006319
  6H   1px       -0.003730  0.003772  0.006993  0.004904 -0.008044  0.008080
  6H   1py       -0.000610 -0.001562  0.002456  0.004798  0.000844  0.001415
  7H   1s        -0.020460 -0.022825  0.041380  0.036272  0.058801  0.068656
  7H   2s        -0.024001 -0.027521  0.049786  0.046807  0.076110  0.090034
  7H   3s         0.006117  0.001538 -0.002412  0.005762  0.009539  0.014722
  7H   1pz        0.002932  0.003892 -0.004974 -0.002382 -0.007223 -0.006358
  7H   1px       -0.001353 -0.003196  0.001508 -0.001304  0.004861  0.002894
  7H   1py        0.003507  0.002223 -0.007328 -0.007049 -0.006024 -0.007683
  8H   1s        -0.020453 -0.024310 -0.040504  0.031945 -0.061239  0.068646
  8H   2s        -0.024200 -0.029256 -0.048932  0.041592 -0.079277  0.089960
  8H   3s         0.006175  0.001762  0.002989  0.004790 -0.009724  0.014895
  8H   1pz       -0.002938 -0.004067 -0.004848  0.001887 -0.007393  0.006323
  8H   1px        0.003728  0.003772  0.006988 -0.004917  0.008034 -0.008074
  8H   1py        0.000606 -0.001565  0.002447 -0.004796 -0.000848 -0.001412
  9H   1s        -0.020472  0.022842 -0.041381  0.036347  0.058755  0.068691
  9H   2s        -0.024014  0.027534 -0.049785  0.046898  0.076048  0.090069
  9H   3s         0.006118 -0.001541  0.002410  0.005766  0.009536  0.014719
  9H   1pz       -0.002937  0.003896 -0.004980  0.002393  0.007223  0.006362
  9H   1px        0.001355 -0.003199  0.001511  0.001302 -0.004860 -0.002892
  9H   1py       -0.003506  0.002220 -0.007323  0.007057  0.006013  0.007685
 10H   1s        -0.020943 -0.048310  0.000862 -0.070964  0.002668  0.068683
 10H   2s        -0.024587 -0.057905  0.000924 -0.091169  0.003344  0.089548
 10H   3s         0.005803  0.002186 -0.000195 -0.011744  0.000509  0.015154
 10H   1pz        0.000007  0.000036  0.002033  0.000107  0.003563 -0.000022
 10H   1px        0.002434  0.005118 -0.001846  0.006021 -0.003332 -0.005145
 10H   1py        0.004211  0.008937  0.000850  0.010676  0.001385 -0.008950
 11H   1s        -0.020957  0.048308 -0.000884 -0.070955  0.002575  0.068692
 11H   2s        -0.024605  0.057902 -0.000945 -0.091156  0.003224  0.089567
 11H   3s         0.005804 -0.002184  0.000198 -0.011740  0.000504  0.015168
 11H   1pz       -0.000005  0.000031  0.002035 -0.000106 -0.003566  0.000023
 11H   1px       -0.002439  0.005126 -0.001848 -0.006026  0.003323  0.005150
 11H   1py       -0.004213  0.008932  0.000849 -0.010671 -0.001401  0.008950
                     12        13        14        15        16        17   
                  -0.46001  -0.45045  -0.42374  -0.42281  -0.37016  -0.34713
                   2.00000   2.00000   2.00000   2.00000   2.00000   2.00000
                  --------  --------  --------  --------  --------  --------
  0C   1s        -0.032069 -0.000035  0.013278 -0.000210 -0.000022 -0.002295
  0C   2s        -0.050495 -0.000051  0.020916 -0.000332 -0.000040 -0.003728
  0C   1pz       -0.000097  0.091771  0.000461  0.026905 -0.071179  0.002069
  0C   1px       -0.032246 -0.079456 -0.069595 -0.022544 -0.061514  0.050156
  0C   1py       -0.056171  0.045864 -0.119567  0.015113  0.035586  0.091298
  0C   3s         0.137375 -0.000031 -0.062579  0.001014  0.000237  0.014034
  0C   2pz       -0.000184  0.128821  0.000739  0.042397 -0.110897  0.002865
  0C   2px       -0.044878 -0.111794 -0.096549 -0.035701 -0.096143  0.069850
  0C   2py       -0.078168  0.064575 -0.165646  0.023544  0.055638  0.127024
  0C   4s         0.153253  0.004112 -0.057455  0.000869 -0.002745 -0.009605
  0C   3pz        0.000640  0.065889 -0.000917 -0.003425 -0.078308  0.002043
  0C   3px       -0.019885 -0.055472 -0.056971  0.003357 -0.066439  0.051118
  0C   3py       -0.033768  0.033613 -0.100281 -0.001484  0.035476  0.093412
  0C   5s        -0.172484 -0.001541  0.025639  0.020477 -0.031096  0.011117
  0C   4pz       -0.001675 -0.000360  0.001236  0.027798  0.003827  0.001096
  0C   4px       -0.018796 -0.000183 -0.009223 -0.022560 -0.013243  0.006106
  0C   4py       -0.035762  0.000511 -0.014713  0.018646 -0.002439  0.011787
  0C   1dz2      -0.008644 -0.000037 -0.001694  0.000019  0.000012  0.012627
  0C   1dxz       0.007194  0.002288  0.001160  0.007437 -0.004648 -0.012492
  0C   1dyz      -0.004192  0.004019 -0.000446  0.012851 -0.008117  0.007572
  0C   1dx2y2    -0.007459 -0.003998 -0.001616 -0.012892 -0.008004  0.010682
  0C   1dxy       0.012979 -0.002251  0.002408 -0.007428 -0.004622 -0.019110
  1C   1s         0.032820  0.000058  0.005194 -0.010717 -0.000000  0.001071
  1C   2s         0.051698  0.000087  0.008170 -0.016866  0.000000  0.001735
  1C   1pz       -0.035268 -0.045893  0.054432 -0.068278 -0.071192 -0.007518
  1C   1px        0.045727 -0.016406 -0.050266  0.097523 -0.061746 -0.052749
  1C   1py        0.008585 -0.120356  0.022048  0.032704  0.035451 -0.106377
  1C   3s        -0.141118 -0.000094 -0.024996  0.050784  0.000046 -0.006502
  1C   2pz       -0.049114 -0.064297  0.077883 -0.093514 -0.110682 -0.009733
  1C   2px        0.063775 -0.022975 -0.069164  0.136126 -0.096012 -0.073232
  1C   2py        0.012109 -0.169197  0.036617  0.048644  0.055252 -0.146457
  1C   4s        -0.159271 -0.003091 -0.019087  0.046356  0.002967  0.004810
  1C   3pz       -0.021688 -0.031481  0.033951 -0.064360 -0.079648 -0.000756
  1C   3px        0.027221 -0.012805 -0.045888  0.079784 -0.065466 -0.052178
  1C   3py        0.003864 -0.083576 -0.012354  0.011613  0.037135 -0.091955
  1C   5s         0.185249 -0.001535  0.045118 -0.086105  0.036089  0.007812
  1C   4pz       -0.023250 -0.000026  0.011325  0.002443 -0.005051  0.002086
  1C   4px        0.031368  0.000165  0.001031  0.008078  0.003651 -0.003514
  1C   4py        0.007422 -0.001503  0.026800  0.016948  0.013987 -0.000189
  1C   1dz2      -0.003909  0.002483 -0.006401 -0.004427  0.009928  0.008291
  1C   1dxz       0.011022 -0.001267  0.001996  0.004376 -0.002244 -0.010020
  1C   1dyz       0.006734  0.003436 -0.010442 -0.004162 -0.003967  0.001708
  1C   1dx2y2    -0.013200  0.000132  0.001400 -0.002646 -0.006952  0.010238
  1C   1dxy       0.000217 -0.004814  0.013664  0.007424  0.002517 -0.010651
  2C   1s        -0.032796 -0.000062 -0.005487 -0.010594 -0.000007  0.001156
  2C   2s        -0.051653 -0.000102 -0.008626 -0.016678 -0.000012  0.001878
  2C   1pz        0.035428 -0.045818 -0.056433 -0.066585 -0.071059 -0.003804
  2C   1px       -0.015751  0.095902  0.044806  0.019231 -0.061649  0.062248
  2C   1py        0.043816  0.074573 -0.035243 -0.099861  0.035641  0.100474
  2C   3s         0.140889  0.000328  0.026235  0.050345  0.000022 -0.007217
  2C   2pz        0.049411 -0.064291 -0.080581 -0.091054 -0.110626 -0.004486
  2C   2px       -0.021686  0.134752  0.066852  0.023974 -0.096160  0.085159
  2C   2py        0.061306  0.104800 -0.045566 -0.140942  0.055421  0.138811
  2C   4s         0.158127  0.000983  0.023095  0.041841 -0.000140  0.006522
  2C   3pz        0.021896 -0.033983 -0.036359 -0.062717 -0.076653  0.001586
  2C   3px       -0.011425  0.068650  0.014250  0.030668 -0.066802  0.051653
  2C   3py        0.024993  0.051422 -0.046857 -0.071515  0.039237  0.093209
  2C   5s        -0.178883  0.001826 -0.050117 -0.025009 -0.070148 -0.018039
  2C   4pz        0.022713  0.000247 -0.010990 -0.001665  0.001601  0.004500
  2C   4px       -0.007700 -0.000729  0.021017 -0.012506 -0.004648  0.001078
  2C   4py        0.032165 -0.000576  0.013084 -0.026036  0.009881  0.009877
  2C   1dz2       0.003901  0.002485  0.006313 -0.004610  0.009891  0.008371
  2C   1dxz       0.000324 -0.003623 -0.009905  0.006074  0.002314 -0.006155
  2C   1dyz       0.012935 -0.000598 -0.003484 -0.001585  0.004032  0.008684
  2C   1dx2y2    -0.006469  0.004130  0.012386 -0.005474  0.001183  0.003419
  2C   1dxy      -0.011551 -0.002521 -0.005456  0.006070  0.007309 -0.014780
  3C   1s         0.032066  0.000044 -0.013276  0.000201  0.000026 -0.002297
  3C   2s         0.050490  0.000064 -0.020914  0.000318  0.000047 -0.003733
  3C   1pz       -0.000120  0.091710  0.000380  0.026895 -0.071208 -0.002019
  3C   1px       -0.032202 -0.079520 -0.069487 -0.022432 -0.061451 -0.050154
  3C   1py       -0.056180  0.045876 -0.119654  0.015287  0.035511 -0.091293
  3C   3s        -0.137364  0.000005  0.062581 -0.000983 -0.000261  0.014047
  3C   2pz       -0.000210  0.128736  0.000660  0.042380 -0.110946 -0.002769
  3C   2px       -0.044822 -0.111911 -0.096429 -0.035553 -0.096042 -0.069869
  3C   2py       -0.078176  0.064578 -0.165758  0.023768  0.055523 -0.127005
  3C   4s        -0.153237 -0.004033  0.057447 -0.000695  0.002728 -0.009583
  3C   3pz        0.000649  0.065851 -0.000965 -0.003395 -0.078340 -0.002002
  3C   3px       -0.019871 -0.055528 -0.056893  0.003401 -0.066372 -0.051104
  3C   3py       -0.033756  0.033612 -0.100346 -0.001389  0.035402 -0.093417
  3C   5s         0.172421  0.001515 -0.025620 -0.020440  0.031001  0.011429
  3C   4pz       -0.001738 -0.000406  0.001231  0.027636  0.003810 -0.001065
  3C   4px       -0.018733 -0.000136 -0.009216 -0.022431 -0.013206 -0.006145
  3C   4py       -0.035785  0.000501 -0.014714  0.018555 -0.002442 -0.011808
  3C   1dz2       0.008636  0.000027  0.001692 -0.000026 -0.000003  0.012606
  3C   1dxz      -0.007197 -0.002280 -0.001151 -0.007418  0.004652 -0.012506
  3C   1dyz       0.004185 -0.004015  0.000462 -0.012853  0.008120  0.007540
  3C   1dx2y2     0.007476  0.003997  0.001604  0.012878  0.007993  0.010724
  3C   1dxy      -0.012973  0.002267 -0.002414  0.007449  0.004625 -0.019093
  4C   1s        -0.032821 -0.000036 -0.005182  0.010716  0.000021  0.001098
  4C   2s        -0.051699 -0.000052 -0.008152  0.016864  0.000032  0.001778
  4C   1pz       -0.035269 -0.045884  0.054575 -0.068252 -0.071161  0.007434
  4C   1px        0.045735 -0.016488 -0.050418  0.097432 -0.061732  0.052940
  4C   1py        0.008560 -0.120354  0.022105  0.032545  0.035491  0.106388
  4C   3s         0.141124  0.000007  0.024951 -0.050777 -0.000130 -0.006642
  4C   2pz       -0.049110 -0.064278  0.078067 -0.093478 -0.110636  0.009613
  4C   2px        0.063792 -0.023113 -0.069368  0.136017 -0.095989  0.073521
  4C   2py        0.012082 -0.169202  0.036679  0.048454  0.055315  0.146494
  4C   4s         0.159281  0.003081  0.018937 -0.046403 -0.003186  0.004606
  4C   3pz       -0.021684 -0.031467  0.034034 -0.064338 -0.079675  0.000649
  4C   3px        0.027232 -0.012870 -0.045984  0.079740 -0.065374  0.052392
  4C   3py        0.003881 -0.083571 -0.012302  0.011529  0.037182  0.091975
  4C   5s        -0.185186  0.001647 -0.045277  0.086038 -0.035492  0.007662
  4C   4pz       -0.023264 -0.000046  0.011319  0.002331 -0.005053 -0.002143
  4C   4px        0.031370  0.000140  0.001068  0.008041  0.003567  0.003568
  4C   4py        0.007318 -0.001584  0.026800  0.016755  0.013848  0.000175
  4C   1dz2       0.003919 -0.002480  0.006392  0.004427 -0.009919  0.008304
  4C   1dxz      -0.011026  0.001265 -0.001984 -0.004366  0.002260 -0.010035
  4C   1dyz      -0.006723 -0.003429  0.010461  0.004156  0.003954  0.001716
  4C   1dx2y2     0.013192 -0.000116 -0.001417  0.002623  0.006959  0.010233
  4C   1dxy      -0.000236  0.004827 -0.013667 -0.007407 -0.002532 -0.010675
  5C   1s         0.032795  0.000059  0.005479  0.010604 -0.000004  0.001181
  5C   2s         0.051651  0.000099  0.008614  0.016694 -0.000006  0.001918
  5C   1pz        0.035457 -0.045790 -0.056594 -0.066637 -0.071062  0.003647
  5C   1px       -0.015746  0.095932  0.044870  0.019247 -0.061654 -0.062248
  5C   1py        0.043766  0.074561 -0.035292 -0.099668  0.035709 -0.100588
  5C   3s        -0.140884 -0.000306 -0.026206 -0.050383  0.000020 -0.007353
  5C   2pz        0.049451 -0.064228 -0.080786 -0.091112 -0.110629  0.004257
  5C   2px       -0.021672  0.134780  0.066917  0.023963 -0.096164 -0.085165
  5C   2py        0.061237  0.104792 -0.045635 -0.140698  0.055529 -0.138993
  5C   4s        -0.158109 -0.000856 -0.022939 -0.041965  0.000286  0.006337
  5C   3pz        0.021905 -0.033958 -0.036455 -0.062790 -0.076598 -0.001766
  5C   3px       -0.011401  0.068669  0.014263  0.030698 -0.066834 -0.051627
  5C   3py        0.024981  0.051424 -0.046860 -0.071375  0.039380 -0.093332
  5C   5s         0.178889 -0.001918  0.050248  0.025037  0.069648 -0.017834
  5C   4pz        0.022771  0.000262 -0.010967 -0.001576  0.001626 -0.004472
  5C   4px       -0.007757 -0.000786  0.021025 -0.012659 -0.004725 -0.001134
  5C   4py        0.032097 -0.000642  0.013111 -0.026162  0.009743 -0.009901
  5C   1dz2      -0.003915 -0.002485 -0.006320  0.004595 -0.009906  0.008393
  5C   1dxz      -0.000317  0.003626  0.009919 -0.006069 -0.002326 -0.006175
  5C   1dyz      -0.012936  0.000624  0.003506  0.001573 -0.004007  0.008686
  5C   1dx2y2     0.006463 -0.004124 -0.012398  0.005459 -0.001182  0.003418
  5C   1dxy       0.011553  0.002512  0.005445 -0.006059 -0.007301 -0.014799
  6H   1s        -0.083545 -0.000055  0.051868 -0.088853  0.000038  0.049072
  6H   2s        -0.115094 -0.000344  0.075482 -0.130217  0.001198  0.073888
  6H   3s        -0.042350  0.000004  0.026305 -0.044237 -0.000208  0.039655
  6H   1pz        0.005052 -0.002490 -0.002637  0.006465 -0.005293 -0.004052
  6H   1px       -0.006349 -0.000894  0.004679 -0.007460 -0.004406  0.001443
  6H   1py       -0.000925 -0.006594  0.002898 -0.000051  0.002665 -0.005576
  7H   1s         0.083652  0.000217 -0.054347 -0.087263  0.000165  0.053438
  7H   2s         0.115136  0.000911 -0.079470 -0.128052  0.000361  0.080737
  7H   3s         0.042664  0.000873 -0.027583 -0.044382  0.000839  0.044059
  7H   1pz       -0.005020 -0.002533  0.002854  0.006416 -0.005292 -0.004137
  7H   1px        0.002379  0.005226  0.000022 -0.003732 -0.004521  0.005466
  7H   1py       -0.005935  0.003986  0.005693  0.006322  0.002550  0.001219
  8H   1s         0.083543  0.000033 -0.052046  0.088760 -0.000042  0.049188
  8H   2s         0.115099  0.000306 -0.075758  0.130081 -0.001220  0.074068
  8H   3s         0.042344 -0.000024 -0.026407  0.044187  0.000144  0.039748
  8H   1pz        0.005059 -0.002492 -0.002656  0.006462 -0.005289  0.004057
  8H   1px       -0.006346 -0.000895  0.004697 -0.007447 -0.004407 -0.001440
  8H   1py       -0.000920 -0.006593  0.002902 -0.000053  0.002667  0.005576
  9H   1s        -0.083639 -0.000185  0.054481  0.087169 -0.000156  0.053566
  9H   2s        -0.115110 -0.000874  0.079668  0.127903 -0.000331  0.080927
  9H   3s        -0.042658 -0.000857  0.027665  0.044326 -0.000784  0.044159
  9H   1pz       -0.005021 -0.002531  0.002863  0.006408 -0.005293  0.004140
  9H   1px        0.002378  0.005227  0.000020 -0.003725 -0.004523 -0.005471
  9H   1py       -0.005931  0.003987  0.005706  0.006315  0.002555 -0.001217
 10H   1s        -0.088175 -0.000048 -0.099529  0.001426  0.000052 -0.101964
 10H   2s        -0.121050 -0.000122 -0.145308  0.002394  0.000408 -0.152603
 10H   3s        -0.045125 -0.000145 -0.050714  0.001404  0.001464 -0.084124
 10H   1pz       -0.000037  0.005018  0.000044  0.001922 -0.005291 -0.000127
 10H   1px        0.004304 -0.004390  0.005496 -0.001784 -0.004666  0.003053
 10H   1py        0.007412  0.002515  0.009601  0.000814  0.002635  0.005035
 11H   1s         0.088191  0.000065  0.099512 -0.001244 -0.000058 -0.101975
 11H   2s         0.121071  0.000140  0.145287 -0.002119 -0.000420 -0.152624
 11H   3s         0.045134  0.000147  0.050708 -0.001294 -0.001474 -0.084137
 11H   1pz       -0.000037  0.005022  0.000049  0.001923 -0.005290  0.000131
 11H   1px        0.004309 -0.004386  0.005496 -0.001773 -0.004670 -0.003059
 11H   1py        0.007410  0.002514  0.009599  0.000836  0.002640 -0.005032
                     18        19        20        21        22        23   
                  -0.34634  -0.25729  -0.25713  -0.01496  -0.01476   0.00644
                   2.00000   2.00000   2.00000   0.00000   0.00000   0.00000
                  --------  --------  --------  --------  --------  --------
  0C   1s         0.000042 -0.000007  0.000019  0.000037  0.000002 -0.014001
  0C   2s         0.000070 -0.000015  0.000025  0.000045 -0.000003 -0.023045
  0C   1pz        0.086599 -0.054109  0.094162  0.070716  0.089057 -0.000253
  0C   1px       -0.076180 -0.046882  0.081623  0.061120  0.077295 -0.016197
  0C   1py        0.041178  0.026927 -0.047071 -0.035368 -0.044252 -0.027458
  0C   3s        -0.000369  0.000056  0.000069  0.000527 -0.000000  0.076739
  0C   2pz        0.118813 -0.083739  0.145943  0.105117  0.133089  0.000131
  0C   2px       -0.104534 -0.072794  0.126848  0.091599  0.115771 -0.025927
  0C   2py        0.056511  0.041802 -0.073388 -0.052897 -0.066421 -0.045267
  0C   4s         0.001916 -0.002080 -0.002416 -0.021436  0.004817  0.177770
  0C   3pz        0.075038 -0.078350  0.132903  0.189017  0.233443  0.004491
  0C   3px       -0.066393 -0.064177  0.111598  0.152805  0.207307 -0.052692
  0C   3py        0.035151  0.034610 -0.064335 -0.104275 -0.109196 -0.072493
  0C   5s         0.003314  0.000408  0.013289 -0.121901  0.103404 -0.503383
  0C   4pz        0.009343  0.005927  0.010450  0.213846  0.286600 -0.197167
  0C   4px       -0.007876 -0.023257  0.026022  0.176724  0.237586  0.289068
  0C   4py        0.005123  0.009947 -0.012293 -0.130576 -0.124591  0.115581
  0C   1dz2      -0.000327 -0.018775 -0.010773  0.024682 -0.019565  0.002940
  0C   1dxz       0.005931 -0.001391  0.002405 -0.002515 -0.003437 -0.007026
  0C   1dyz       0.009591 -0.002394  0.004129 -0.004741 -0.005857  0.004037
  0C   1dx2y2    -0.010046  0.003096  0.007199 -0.012001 -0.000328  0.002506
  0C   1dxy      -0.005131 -0.010691 -0.003092  0.009567 -0.013321 -0.004497
  1C   1s        -0.001934 -0.000023  0.000012 -0.000023  0.000083 -0.014199
  1C   2s        -0.003131 -0.000038  0.000017 -0.000029  0.000108 -0.023390
  1C   1pz       -0.076697 -0.108644  0.000216  0.041533 -0.105521  0.019566
  1C   1px        0.063987 -0.094051  0.000080  0.035993 -0.090743 -0.026370
  1C   1py       -0.042736  0.054259 -0.000082 -0.020770  0.052519 -0.004223
  1C   3s         0.011915  0.000268 -0.000060 -0.000457  0.000730  0.079590
  1C   2pz       -0.106531 -0.168061  0.000492  0.062435 -0.157408  0.031987
  1C   2px        0.089380 -0.145640 -0.000054  0.053859 -0.135939 -0.041349
  1C   2py       -0.058571  0.084437  0.000061 -0.030505  0.079293 -0.007477
  1C   4s        -0.011060  0.002096 -0.001349  0.016846 -0.016428  0.155797
  1C   3pz       -0.076332 -0.155323  0.000509  0.099702 -0.275229  0.057588
  1C   3px        0.067978 -0.127939  0.000798  0.104098 -0.241286 -0.074764
  1C   3py       -0.034864  0.071856  0.000325 -0.054111  0.131000 -0.000860
  1C   5s        -0.008940  0.028403  0.008853  0.178310 -0.061729 -0.326108
  1C   4pz       -0.002036 -0.021605 -0.000597  0.128390 -0.318557 -0.267681
  1C   4px        0.007714 -0.016401  0.000313  0.145811 -0.304379  0.220300
  1C   4py        0.008292  0.040684 -0.006212 -0.045132  0.200430 -0.232097
  1C   1dz2      -0.002663  0.005813 -0.010815 -0.011218 -0.014327 -0.002821
  1C   1dxz       0.011849 -0.001199 -0.007656 -0.011242 -0.001820  0.002572
  1C   1dyz       0.014345 -0.002358 -0.013251 -0.019254 -0.003540  0.005132
  1C   1dx2y2    -0.018202 -0.004226 -0.010112 -0.016104  0.000641 -0.007653
  1C   1dxy      -0.005189  0.001435 -0.013116 -0.016784 -0.009560  0.001397
  2C   1s         0.001885 -0.000033 -0.000032  0.000005 -0.000008 -0.014298
  2C   2s         0.003052 -0.000058 -0.000054 -0.000010  0.000004 -0.023533
  2C   1pz        0.076895 -0.054579 -0.094102 -0.112394  0.016633  0.019406
  2C   1px       -0.072229 -0.047272 -0.081335 -0.097117  0.014505 -0.009565
  2C   1py        0.029143  0.027149  0.046902  0.055844 -0.008391  0.025032
  2C   3s        -0.011569  0.000290  0.000231  0.000754 -0.000685  0.078981
  2C   2pz        0.106826 -0.084390 -0.145808 -0.167507  0.025512  0.032003
  2C   2px       -0.099587 -0.073310 -0.126006 -0.145227  0.021139 -0.014993
  2C   2py        0.041417  0.041894  0.072741  0.083264 -0.013316  0.039632
  2C   4s         0.009457 -0.000162  0.001614 -0.020264  0.016471  0.167665
  2C   3pz        0.076395 -0.074657 -0.132698 -0.287673  0.038517  0.051579
  2C   3px       -0.067984 -0.068005 -0.112088 -0.259850  0.038655 -0.025558
  2C   3py        0.036336  0.037933  0.065127  0.155274 -0.026633  0.074259
  2C   5s         0.005438 -0.029984 -0.024630 -0.190795  0.004772 -0.355083
[...]
  3C   1py       -0.026528 -0.028475 -0.004793  0.018234  0.024330  0.020422
  3C   3s         0.269298  0.016810  0.476660 -0.008314  0.441018  0.345238
  3C   2pz       -0.000019  0.233344 -0.006660 -0.116109 -0.004753 -0.000739
  3C   2px        0.073205 -0.202568 -0.000103  0.101776 -0.045810 -0.030582
  3C   2py        0.127025  0.116416 -0.013381 -0.056282 -0.088862 -0.054434
  3C   4s        -0.141590 -0.009188 -0.225232  0.004932 -0.226207 -1.198805
  3C   3pz        0.000013 -0.070275  0.002038  0.018777  0.001002  0.000443
  3C   3px       -0.009843  0.063030  0.039280 -0.018975  0.108493  0.405562
  3C   3py       -0.017078 -0.031434  0.072187  0.004755  0.190194  0.704227
  3C   5s        -0.058559  0.012849  0.411169 -0.003502  0.260800 -2.184972
  3C   4pz       -0.000230  0.129661 -0.003792 -0.032604 -0.001889 -0.000931
  3C   4px       -0.021715 -0.113622 -0.039396  0.028553 -0.019434  0.226536
  3C   4py       -0.038179  0.062503 -0.075888 -0.015867 -0.037453  0.391107
  3C   1dz2      -0.036452 -0.000534 -0.017336  0.000081 -0.006656 -0.003891
  3C   1dxz       0.019024 -0.063446 -0.027928  0.031743 -0.092333 -0.077962
  3C   1dyz      -0.011063 -0.106836  0.020188  0.050129  0.056109  0.045408
  3C   1dx2y2    -0.031640  0.107240 -0.018098 -0.051309 -0.007808 -0.003595
  3C   1dxy       0.054710  0.063079  0.024125 -0.029810  0.008498  0.005367
  4C   1s         0.834526  1.035091  0.573848 -1.000048 -0.615113 -0.825051
  4C   2s        -0.903928 -1.138605 -0.631352  1.104598  0.679514  0.914816
  4C   1pz        0.017781 -0.010434  0.026139  0.004999  0.025206  0.014981
  4C   1px       -0.022983 -0.008455  0.007459 -0.022241 -0.005819 -0.018613
  4C   1py       -0.004197 -0.035553  0.065283 -0.028505  0.040412 -0.002251
  4C   3s         0.271081  0.419679  0.232047 -0.369312 -0.227749 -0.333965
  4C   2pz       -0.082198  0.066546 -0.094862 -0.026434 -0.084630 -0.042108
  4C   2px        0.106130  0.004950 -0.046417  0.082453  0.026658  0.051701
  4C   2py        0.019240  0.141923 -0.270432  0.089825 -0.123361  0.005251
  4C   4s        -0.148358 -0.208241 -0.118210  0.190856  0.120398  1.202510
  4C   3pz        0.010033 -0.061485  0.002844  0.105666  0.078509  0.494821
  4C   3px       -0.013312  0.051367  0.045354 -0.142475 -0.087100 -0.630526
  4C   3py       -0.002969 -0.034263  0.084278 -0.035174  0.006291 -0.101472
  4C   5s        -0.008942  0.420864  0.271871 -0.247585 -0.138123  2.182645
  4C   4pz        0.031826  0.081902 -0.022909 -0.016350 -0.026574  0.277574
  4C   4px       -0.038970 -0.054689 -0.061744  0.033999  0.011949 -0.353713
  4C   4py       -0.003627  0.069644 -0.152843  0.026173 -0.032557 -0.057019
  4C   1dz2       0.011017  0.022261 -0.063104  0.045724 -0.008613  0.028333
  4C   1dxz      -0.049642 -0.051108  0.011353  0.033976  0.040355  0.039258
  4C   1dyz      -0.019903  0.058100 -0.071300 -0.029940 -0.069832 -0.052234
  4C   1dx2y2     0.046045 -0.002088 -0.006086  0.047307  0.027397  0.046682
  4C   1dxy       0.004475 -0.045987  0.122852 -0.064005  0.033316 -0.029546
  5C   1s         0.834092  0.996738 -0.636589  1.032060 -0.559838  0.826632
  5C   2s        -0.903454 -1.096414  0.700378 -1.139954  0.618448 -0.916564
  5C   1pz        0.017786 -0.012039 -0.025454 -0.006282  0.024911 -0.015060
  5C   1px       -0.007838  0.029777  0.051028 -0.011592 -0.038551  0.007468
  5C   1py        0.022037  0.027510  0.037461 -0.032632 -0.016939 -0.017200
  5C   3s         0.270967  0.404320 -0.257525  0.381280 -0.207170  0.334525
  5C   2pz       -0.082251  0.072298  0.090648  0.030767 -0.083126  0.042301
  5C   2px        0.036349 -0.133205 -0.203059  0.030293  0.121839 -0.021580
  5C   2py       -0.101752 -0.086179 -0.170353  0.113949  0.044760  0.047237
  5C   4s        -0.147825 -0.201729  0.130840 -0.196926  0.105152 -1.202367
  5C   3pz        0.010164 -0.062111  0.000997 -0.109598  0.070855 -0.494970
  5C   3px       -0.004123  0.058570  0.046767  0.043200 -0.045730  0.227085
  5C   3py        0.013229 -0.022762  0.083056 -0.144554  0.062633 -0.597268
  5C   5s        -0.009417  0.399035 -0.297235  0.255384 -0.132996 -2.182456
  5C   4pz        0.031988  0.082992  0.017905  0.017889 -0.026607 -0.277499
  5C   4px       -0.016612 -0.093608 -0.095894  0.003756  0.034532  0.127257
  5C   4py        0.035174  0.003626 -0.130330  0.042235  0.006598 -0.334971
  5C   1dz2       0.011022  0.026269  0.061687 -0.045141 -0.011172 -0.028285
  5C   1dxz      -0.007548 -0.079855 -0.062559 -0.047135  0.078195 -0.065130
  5C   1dyz       0.053014  0.013667 -0.026663  0.014472  0.000737  0.007887
  5C   1dx2y2    -0.026936  0.047107  0.100539 -0.029520 -0.044089 -0.002164
  5C   1dxy      -0.037700 -0.025419 -0.065337  0.073160 -0.003080  0.055209
  6H   1s        -0.010262 -0.012176 -0.006760 -0.022085 -0.013394  0.028863
  6H   2s        -0.163476  0.137234  0.073571  0.126803  0.076079 -0.194755
  6H   3s         0.145356 -0.044430 -0.022571  0.009135  0.006788 -0.142075
  6H   1pz        0.067026 -0.048706 -0.032131 -0.037148 -0.019133  0.030181
  6H   1px       -0.085563  0.066353  0.033327  0.045331  0.027769 -0.038676
  6H   1py       -0.013913  0.017349 -0.006656  0.004050  0.009738 -0.006343
  7H   1s        -0.010257 -0.011792  0.007491  0.022699 -0.012365 -0.028798
  7H   2s        -0.163487  0.132952 -0.081699 -0.130348  0.070490  0.194491
  7H   3s         0.145241 -0.042806  0.025217 -0.009483  0.006902  0.142091
  7H   1pz        0.066993 -0.046748  0.035015  0.038026 -0.017407 -0.030153
  7H   1px       -0.030730  0.016802 -0.023477 -0.019378  0.004565  0.013777
  7H   1py        0.081058 -0.064592  0.029478  0.042634 -0.026987 -0.036531
  8H   1s        -0.010227  0.012097  0.007002 -0.021933 -0.013680 -0.028834
  8H   2s        -0.163413 -0.136513 -0.075050  0.125490  0.078199  0.194513
  8H   3s         0.145229  0.044423  0.022534  0.009277  0.007072  0.142046
  8H   1pz       -0.067040 -0.048561 -0.032585  0.036676  0.019735  0.030149
  8H   1px        0.085494  0.066065  0.033844 -0.044764 -0.028554 -0.038547
  8H   1py        0.013851  0.017216 -0.006617 -0.004103 -0.009946 -0.006390
  9H   1s        -0.010283  0.011610 -0.007730  0.022604 -0.012421  0.028860
  9H   2s        -0.163522 -0.131817  0.083410 -0.129722  0.070954 -0.194850
  9H   3s         0.145352  0.042855 -0.025187 -0.009488  0.005984 -0.142130
  9H   1pz       -0.067061 -0.046461  0.035529 -0.037769  0.017718 -0.030217
  9H   1px        0.030730  0.016678 -0.023721  0.019137 -0.004639  0.013767
  9H   1py       -0.081053 -0.064156  0.030047 -0.042483  0.027455 -0.036705
 10H   1s        -0.013213  0.000496  0.011711 -0.000544  0.024722  0.028391
 10H   2s        -0.171919 -0.006158 -0.165226  0.003261 -0.159696 -0.204732
 10H   3s         0.151767  0.001606  0.054858  0.000530 -0.009201 -0.143540
 10H   1pz       -0.000036  0.010953 -0.000356 -0.004861 -0.000246 -0.000079
 10H   1px        0.057059 -0.007717  0.050388  0.003520  0.037320  0.027269
 10H   1py        0.098968  0.008568  0.086741 -0.003630  0.064308  0.047246
 11H   1s        -0.013207 -0.000243 -0.011695 -0.000706  0.024642 -0.028494
 11H   2s        -0.171967  0.004210  0.165055  0.004786 -0.158994  0.205264
 11H   3s         0.151680 -0.001613 -0.054845 -0.000029 -0.008569  0.143619
 11H   1pz        0.000045  0.010950 -0.000403  0.004881  0.000093 -0.000008
 11H   1px       -0.057119 -0.008164  0.050424 -0.003051 -0.037148  0.027364
 11H   1py       -0.098941  0.007768  0.086623  0.004484 -0.064231  0.047462



                    ********************************
                    * MULLIKEN POPULATION ANALYSIS *
                    ********************************

-----------------------
MULLIKEN ATOMIC CHARGES
-----------------------
   0 C :   -0.086522
   1 C :   -0.171188
   2 C :   -0.125044
   3 C :   -0.086655
   4 C :   -0.171396
   5 C :   -0.124819
   6 H :    0.129514
   7 H :    0.128047
   8 H :    0.129513
   9 H :    0.128053
  10 H :    0.125262
  11 H :    0.125237
Sum of atomic charges:   -0.0000000

--------------------------------
MULLIKEN REDUCED ORBITAL CHARGES
--------------------------------
  0 C s       :     3.151584  s :     3.151584
      pz      :     0.921735  p :     2.876549
      px      :     0.959006
      py      :     0.995808
      dz2     :     0.012508  d :     0.058390
      dxz     :     0.009421
      dyz     :     0.010036
      dx2y2   :     0.011766
      dxy     :     0.014658
  1 C s       :     3.224378  s :     3.224378
      pz      :     0.985250  p :     2.888496
      px      :     0.990002
      py      :     0.913244
      dz2     :     0.007780  d :     0.058315
      dxz     :     0.009822
      dyz     :     0.012725
      dx2y2   :     0.015002
      dxy     :     0.012986
  2 C s       :     3.181408  s :     3.181408
      pz      :     0.979157  p :     2.885293
      px      :     0.934130
      py      :     0.972006
      dz2     :     0.007785  d :     0.058342
      dxz     :     0.008734
      dyz     :     0.013825
      dx2y2   :     0.014291
      dxy     :     0.013706
  3 C s       :     3.151609  s :     3.151609
      pz      :     0.921911  p :     2.876674
      px      :     0.958933
      py      :     0.995831
      dz2     :     0.012496  d :     0.058373
      dxz     :     0.009420
      dyz     :     0.010026
      dx2y2   :     0.011780
      dxy     :     0.014650
  4 C s       :     3.224569  s :     3.224569
      pz      :     0.984963  p :     2.888520
      px      :     0.990344
      py      :     0.913214
      dz2     :     0.007783  d :     0.058307
      dxz     :     0.009830
      dyz     :     0.012709
      dx2y2   :     0.014995
      dxy     :     0.012990
  5 C s       :     3.181280  s :     3.181280
      pz      :     0.979512  p :     2.885185
      px      :     0.933979
      py      :     0.971694
      dz2     :     0.007800  d :     0.058354
      dxz     :     0.008739
      dyz     :     0.013824
      dx2y2   :     0.014280
      dxy     :     0.013712
  6 H s       :     0.846064  s :     0.846064
      pz      :     0.008912  p :     0.024423
      px      :     0.011000
      py      :     0.004510
  7 H s       :     0.847580  s :     0.847580
      pz      :     0.008902  p :     0.024373
      px      :     0.005564
      py      :     0.009908
  8 H s       :     0.846069  s :     0.846069
      pz      :     0.008915  p :     0.024418
      px      :     0.010995
      py      :     0.004508
  9 H s       :     0.847571  s :     0.847571
      pz      :     0.008907  p :     0.024376
      px      :     0.005564
      py      :     0.009905
 10 H s       :     0.849950  s :     0.849950
      pz      :     0.005108  p :     0.024788
      px      :     0.007507
      py      :     0.012173
 11 H s       :     0.849975  s :     0.849975
      pz      :     0.005107  p :     0.024788
      px      :     0.007512
      py      :     0.012169


                     *******************************
                     * LOEWDIN POPULATION ANALYSIS *
                     *******************************

----------------------
LOEWDIN ATOMIC CHARGES
----------------------
   0 C :   -0.074428
   1 C :   -0.076043
   2 C :   -0.075721
   3 C :   -0.074415
   4 C :   -0.076045
   5 C :   -0.075734
   6 H :    0.076422
   7 H :    0.076323
   8 H :    0.076452
   9 H :    0.076305
  10 H :    0.073439
  11 H :    0.073443

-------------------------------
LOEWDIN REDUCED ORBITAL CHARGES
-------------------------------
  0 C s       :     2.797533  s :     2.797533
      pz      :     1.040414  p :     3.144902
      px      :     1.046113
      py      :     1.058374
      dz2     :     0.025621  d :     0.131993
      dxz     :     0.023653
      dyz     :     0.024260
      dx2y2   :     0.026907
      dxy     :     0.031551
  1 C s       :     2.799940  s :     2.799940
      pz      :     1.018789  p :     3.144374
      px      :     1.024903
      py      :     1.100681
      dz2     :     0.016697  d :     0.131729
      dxz     :     0.019580
      dyz     :     0.030278
      dx2y2   :     0.033987
      dxy     :     0.031187
  2 C s       :     2.799949  s :     2.799949
      pz      :     1.018499  p :     3.144126
      px      :     1.056166
      py      :     1.069460
      dz2     :     0.016715  d :     0.131646
      dxz     :     0.021191
      dyz     :     0.028589
      dx2y2   :     0.032551
      dxy     :     0.032599
  3 C s       :     2.797598  s :     2.797598
      pz      :     1.040340  p :     3.144867
      px      :     1.046034
      py      :     1.058493
      dz2     :     0.025593  d :     0.131950
      dxz     :     0.023643
      dyz     :     0.024239
      dx2y2   :     0.026941
      dxy     :     0.031534
  4 C s       :     2.799988  s :     2.799988
      pz      :     1.018805  p :     3.144348
      px      :     1.024938
      py      :     1.100605
      dz2     :     0.016703  d :     0.131709
      dxz     :     0.019598
      dyz     :     0.030247
      dx2y2   :     0.033966
      dxy     :     0.031194
  5 C s       :     2.799891  s :     2.799891
      pz      :     1.018646  p :     3.144165
      px      :     1.056255
      py      :     1.069264
      dz2     :     0.016743  d :     0.131678
      dxz     :     0.021212
      dyz     :     0.028587
      dx2y2   :     0.032520
      dxy     :     0.032616
  6 H s       :     0.856192  s :     0.856192
      pz      :     0.024141  p :     0.067386
      px      :     0.031022
      py      :     0.012223
  7 H s       :     0.856269  s :     0.856269
      pz      :     0.024125  p :     0.067408
      px      :     0.014760
      py      :     0.028523
  8 H s       :     0.856178  s :     0.856178
      pz      :     0.024153  p :     0.067370
      px      :     0.031000
      py      :     0.012217
  9 H s       :     0.856277  s :     0.856277
      pz      :     0.024138  p :     0.067418
      px      :     0.014760
      py      :     0.028520
 10 H s       :     0.857602  s :     0.857602
      pz      :     0.013185  p :     0.068959
      px      :     0.020486
      py      :     0.035288
 11 H s       :     0.857601  s :     0.857601
      pz      :     0.013181  p :     0.068956
      px      :     0.020500
      py      :     0.035275


                      *****************************
                      * MAYER POPULATION ANALYSIS *
                      *****************************

  NA   - Mulliken gross atomic population
  ZA   - Total nuclear charge
  QA   - Mulliken gross atomic charge
  VA   - Mayer's total valence
  BVA  - Mayer's bonded valence
  FA   - Mayer's free valence

  ATOM       NA         ZA         QA         VA         BVA        FA
  0 C      6.0865     6.0000    -0.0865     4.0545     4.0545    -0.0000
  1 C      6.1712     6.0000    -0.1712     4.1030     4.1030    -0.0000
  2 C      6.1250     6.0000    -0.1250     4.0738     4.0738    -0.0000
  3 C      6.0867     6.0000    -0.0867     4.0547     4.0547    -0.0000
  4 C      6.1714     6.0000    -0.1714     4.1030     4.1030     0.0000
  5 C      6.1248     6.0000    -0.1248     4.0734     4.0734    -0.0000
  6 H      0.8705     1.0000     0.1295     0.9614     0.9614    -0.0000
  7 H      0.8720     1.0000     0.1280     0.9618     0.9618    -0.0000
  8 H      0.8705     1.0000     0.1295     0.9614     0.9614     0.0000
  9 H      0.8719     1.0000     0.1281     0.9618     0.9618    -0.0000
 10 H      0.8747     1.0000     0.1253     0.9627     0.9627    -0.0000
 11 H      0.8748     1.0000     0.1252     0.9627     0.9627    -0.0000

  Mayer bond orders larger than 0.100000
B(  0-C ,  1-C ) :   1.5473 B(  0-C ,  5-C ) :   1.5466 B(  0-C , 11-H ) :   0.9168 
B(  1-C ,  2-C ) :   1.5490 B(  1-C ,  6-H ) :   0.9449 B(  2-C ,  3-C ) :   1.5453 
B(  2-C ,  7-H ) :   0.9273 B(  3-C ,  4-C ) :   1.5486 B(  3-C , 10-H ) :   0.9168 
B(  4-C ,  5-C ) :   1.5474 B(  4-C ,  8-H ) :   0.9450 B(  5-C ,  9-H ) :   0.9273 


-------
TIMINGS
-------

Total SCF time: 0 days 0 hours 0 min 12 sec 

Total time                  ....      12.313 sec
Sum of individual times     ....      11.645 sec  ( 94.6%)

Fock matrix formation       ....      10.901 sec  ( 88.5%)
  XC integration            ....       0.962 sec  (  8.8% of F)
    Basis function eval.    ....       0.132 sec  ( 13.7% of XC)
    Density eval.           ....       0.210 sec  ( 21.8% of XC)
    XC-Functional eval.     ....       0.021 sec  (  2.2% of XC)
    XC-Potential eval.      ....       0.220 sec  ( 22.9% of XC)
Diagonalization             ....       0.059 sec  (  0.5%)
Density matrix formation    ....       0.016 sec  (  0.1%)
Population analysis         ....       0.022 sec  (  0.2%)
Initial guess               ....       0.227 sec  (  1.8%)
Orbital Transformation      ....       0.000 sec  (  0.0%)
Orbital Orthonormalization  ....       0.000 sec  (  0.0%)
DIIS solution               ....       0.043 sec  (  0.3%)
SOSCF solution              ....       0.036 sec  (  0.3%)
Grid generation             ....       0.341 sec  (  2.8%)

-------------------------   --------------------
FINAL SINGLE POINT ENERGY      -232.156339932072
-------------------------   --------------------


                            ***************************************
                            *     ORCA property calculations      *
                            ***************************************

                                    ---------------------
                                    Active property flags
                                    ---------------------
   (+) Dipole Moment


------------------------------------------------------------------------------
                       ORCA ELECTRIC PROPERTIES CALCULATION
------------------------------------------------------------------------------

Dipole Moment Calculation                       ... on
Quadrupole Moment Calculation                   ... off
Polarizability Calculation                      ... off
GBWName                                         ... pople.gbw
Electron density file                           ... pople.scfp
The origin for moment calculation is the CENTER OF MASS  = (-2.418180, -2.114551  0.001591)

-------------
DIPOLE MOMENT
-------------
                                X             Y             Z
Electronic contribution:      0.00047      -0.00016       0.00054
Nuclear contribution   :     -0.00072       0.00018      -0.00075
                        -----------------------------------------
Total Dipole Moment    :     -0.00025       0.00002      -0.00021
                        -----------------------------------------
Magnitude (a.u.)       :      0.00033
Magnitude (Debye)      :      0.00083



--------------------
Rotational spectrum 
--------------------
 
Rotational constants in cm-1:     0.189746     0.189529     0.094819 
Rotational constants in MHz :  5688.432548  5681.944841  2842.593548 

 Dipole components along the rotational axes: 
x,y,z [a.u.] :     0.000007    -0.000106    -0.000309 
x,y,z [Debye]:     0.000019    -0.000270    -0.000787 

 

Timings for individual modules:

Sum of individual times         ...       13.262 sec (=   0.221 min)
GTO integral calculation        ...        0.764 sec (=   0.013 min)   5.8 %
SCF iterations                  ...       12.498 sec (=   0.208 min)  94.2 %
                             ****ORCA TERMINATED NORMALLY****
TOTAL RUN TIME: 0 days 0 hours 0 minutes 13 seconds 855 msec
