 Entering Gaussian System, Link 0=g09
 Input=/home/vmi38398/chem/asymmetric_hydrogenation/debug/S_binap/S_binap-SS_dpen_Ph/R/ts1/Cf1/S_binap-SS_dpen_Ph.R.ts1.Cf1.3.com
 Output=/home/vmi38398/chem/asymmetric_hydrogenation/debug/S_binap/S_binap-SS_dpen_Ph/R/ts1/Cf1/S_binap-SS_dpen_Ph.R.ts1.Cf1.3.log
 Initial command:
 /usr/local/apps/eb/gaussian/09-Intel-SSE4_2/g09/l1.exe "/lscratch/vmi38398/651827.sapelo2/Gau-149203.inp" -scrdir="/lscratch/vmi38398/651827.sapelo2/"
 Default is to use a total of  14 processors:
                               14 via shared-memory
                                1 via Linda
 Entering Link 1 = /usr/local/apps/eb/gaussian/09-Intel-SSE4_2/g09/l1.exe PID=    149204.
  
 Copyright (c) 1988,1990,1992,1993,1995,1998,2003,2009,2013,
            Gaussian, Inc.  All Rights Reserved.
  
 This is part of the Gaussian(R) 09 program.  It is based on
 the Gaussian(R) 03 system (copyright 2003, Gaussian, Inc.),
 the Gaussian(R) 98 system (copyright 1998, Gaussian, Inc.),
 the Gaussian(R) 94 system (copyright 1995, Gaussian, Inc.),
 the Gaussian 92(TM) system (copyright 1992, Gaussian, Inc.),
 the Gaussian 90(TM) system (copyright 1990, Gaussian, Inc.),
 the Gaussian 88(TM) system (copyright 1988, Gaussian, Inc.),
 the Gaussian 86(TM) system (copyright 1986, Carnegie Mellon
 University), and the Gaussian 82(TM) system (copyright 1983,
 Carnegie Mellon University). Gaussian is a federally registered
 trademark of Gaussian, Inc.
  
 This software contains proprietary and confidential information,
 including trade secrets, belonging to Gaussian, Inc.
  
 This software is provided under written license and may be
 used, copied, transmitted, or stored only in accord with that
 written license.
  
 The following legend is applicable only to US Government
 contracts under FAR:
  
                    RESTRICTED RIGHTS LEGEND
  
 Use, reproduction and disclosure by the US Government is
 subject to restrictions as set forth in subparagraphs (a)
 and (c) of the Commercial Computer Software - Restricted
 Rights clause in FAR 52.227-19.
  
 Gaussian, Inc.
 340 Quinnipiac St., Bldg. 40, Wallingford CT 06492
  
  
 ---------------------------------------------------------------
 Warning -- This program may not be used in any manner that
 competes with the business of Gaussian, Inc. or will provide
 assistance to any competitor of Gaussian, Inc.  The licensee
 of this program is prohibited from giving any competitor of
 Gaussian, Inc. access to this program.  By using this program,
 the user acknowledges that Gaussian, Inc. is engaged in the
 business of creating and licensing software in the field of
 computational chemistry and represents and warrants to the
 licensee that it is not a competitor of Gaussian, Inc. and that
 it will not use this program in any manner prohibited above.
 ---------------------------------------------------------------
  

 Cite this work as:
 Gaussian 09, Revision D.01,
 M. J. Frisch, G. W. Trucks, H. B. Schlegel, G. E. Scuseria, 
 M. A. Robb, J. R. Cheeseman, G. Scalmani, V. Barone, B. Mennucci, 
 G. A. Petersson, H. Nakatsuji, M. Caricato, X. Li, H. P. Hratchian, 
 A. F. Izmaylov, J. Bloino, G. Zheng, J. L. Sonnenberg, M. Hada, 
 M. Ehara, K. Toyota, R. Fukuda, J. Hasegawa, M. Ishida, T. Nakajima, 
 Y. Honda, O. Kitao, H. Nakai, T. Vreven, J. A. Montgomery, Jr., 
 J. E. Peralta, F. Ogliaro, M. Bearpark, J. J. Heyd, E. Brothers, 
 K. N. Kudin, V. N. Staroverov, T. Keith, R. Kobayashi, J. Normand, 
 K. Raghavachari, A. Rendell, J. C. Burant, S. S. Iyengar, J. Tomasi, 
 M. Cossi, N. Rega, J. M. Millam, M. Klene, J. E. Knox, J. B. Cross, 
 V. Bakken, C. Adamo, J. Jaramillo, R. Gomperts, R. E. Stratmann, 
 O. Yazyev, A. J. Austin, R. Cammi, C. Pomelli, J. W. Ochterski, 
 R. L. Martin, K. Morokuma, V. G. Zakrzewski, G. A. Voth, 
 P. Salvador, J. J. Dannenberg, S. Dapprich, A. D. Daniels, 
 O. Farkas, J. B. Foresman, J. V. Ortiz, J. Cioslowski, 
 and D. J. Fox, Gaussian, Inc., Wallingford CT, 2013.
 
 ******************************************
 Gaussian 09:  ES64L-G09RevD.01 24-Apr-2013
                20-Dec-2018 
 ******************************************
 %chk=S_binap-SS_dpen_Ph.R.ts1.Cf1.chk
 ----------------------------------------------------------------------
 #wb97xd/genecp opt=(calcfc,ts,maxcyc=1000) scrf=(pcm,solvent=2-propano
 l)
 ----------------------------------------------------------------------
 1/5=1,6=1000,10=4,14=-1,18=20,26=3,38=1/1,3;
 2/9=110,12=2,17=6,18=5,40=1/2;
 3/5=7,11=2,16=1,17=8,25=1,30=1,70=2201,71=2,72=73,74=-58,140=1/1,2,3;
 4//1;
 5/5=2,38=5,53=73/2;
 8/6=4,10=90,11=11/1;
 11/6=1,8=1,9=11,15=111,16=1/1,2,10;
 10/6=1,13=1/2;
 6/7=2,8=2,9=2,10=2,28=1/1;
 7/10=1,18=20,25=1/1,2,3,16;
 1/5=1,6=1000,10=4,14=-1,18=20,26=3/3(2);
 2/9=110/2;
 99//99;
 2/9=110/2;
 3/5=7,6=1,11=2,16=1,17=8,25=1,30=1,70=2205,71=1,72=73,74=-58,82=7/1,2,3;
 4/5=5,16=3,69=1/1;
 5/5=2,38=5,53=73/2;
 7//1,2,3,16;
 1/5=1,6=1000,14=-1,18=20,26=3/3(-5);
 2/9=110/2;
 6/7=2,8=2,9=2,10=2,19=2,28=1/1;
 99/9=1/99;
 --------------------------
 step 3 (attempt 1) cycle 1
 --------------------------
 Symbolic Z-matrix:
 Charge =  0 Multiplicity = 1
 H                    -1.4344   -0.4884   -4.99139 
 C                    -0.93241  -0.45926  -4.01521 
 C                    -2.01781  -0.28227  -2.95774 
 O                    -2.67956   0.78713  -2.95643 
 C                    -2.73402  -1.56313  -2.56022 
 H                    -0.37617  -1.39055  -3.8966 
 H                    -0.23649   0.38243  -4.0088 
 H                    -0.90301  -0.21332  -1.64524 
 H                    -0.64532   0.69274   1.66144 
 N                    -2.22662   1.70616  -0.28136 
 N                    -2.41567  -0.87474   0.55858 
 C                    -3.3861    1.38901   0.57603 
 H                    -1.96863   2.68218  -0.15463 
 H                    -2.48782   1.58446  -1.27141 
 C                    -3.67363  -0.11038   0.40058 
 H                    -2.48355  -1.72921   0.00609 
 H                    -2.31776  -1.17867   1.52414 
 C                    -4.62228   2.20938   0.26614 
 H                    -3.07444   1.57445   1.60869 
 H                    -3.98747  -0.24864  -0.63555 
 C                    -4.76866  -0.60712   1.31785 
 C                    -2.06833  -2.71331  -2.12353 
 C                    -4.12551  -1.59587  -2.67317 
 C                    -4.17305  -3.87503  -1.87868 
 C                    -4.84206  -2.74345  -2.33648 
 C                    -2.78126  -3.85675  -1.77607 
 H                    -0.98923  -2.69731  -2.00992 
 H                    -2.25012  -4.73289  -1.41568 
 H                    -4.72874  -4.76686  -1.60493 
 H                    -5.92442  -2.74976  -2.42788 
 H                    -4.6412   -0.70383  -3.01564 
 C                    -5.1354    2.2612   -1.03487 
 C                    -5.29255   2.88374   1.28695 
 C                    -6.96281   3.64843  -0.27717 
 C                    -6.4576    3.59986   1.01947 
 C                    -6.2976    2.97829  -1.30351 
 H                    -4.62385   1.73645  -1.83995 
 H                    -6.6885    3.01188  -2.3164 
 H                    -7.87169   4.20412  -0.48831 
 H                    -6.96941   4.11811   1.82513 
 H                    -4.90422   2.83966   2.30164 
 C                    -4.57352  -0.64371   2.70233 
 C                    -5.98954  -1.03475   0.79649 
 C                    -6.79174  -1.53989   3.01636 
 C                    -6.99726  -1.49849   1.63963 
 C                    -5.57621  -1.10969   3.54696 
 H                    -3.63307  -0.30272   3.13166 
 H                    -5.40971  -1.13549   4.61977 
 H                    -7.57456  -1.90379   3.67503 
 H                    -7.94175  -1.83046   1.21883 
 H                    -6.15122  -1.00149  -0.27747 
 Ru                   -0.63555   0.28154   0.06679 
 P                     1.08838   1.71318  -0.3127 
 P                     0.78501  -1.38168   0.64721 
 C                     0.66277   3.1466   -1.41651 
 C                     1.9329    2.59678   1.07581 
 C                     2.52596   0.91878  -1.17905 
 C                    -0.13603  -2.56246   1.73814 
 C                     1.58574  -2.5232   -0.55931 
 C                     2.29869  -0.87519   1.60156 
 C                     3.3578    0.01987  -0.52546 
 C                     2.65332   1.09426  -2.58345 
 C                     3.32423  -0.19009   0.96183 
 C                     2.38289  -1.1047    3.00001 
 C                     4.32214  -0.73537  -1.2785 
 C                     3.58246   0.40294  -3.30971 
 H                     2.00314   1.79845  -3.09142 
 C                     4.43741   0.30356   1.72524 
 C                     3.42802  -0.63039   3.74355 
 H                     1.61215  -1.68093   3.49623 
 C                     4.44132  -0.53059  -2.67975 
 C                     5.16342  -1.71056  -0.6752 
 H                     3.67102   0.5632   -4.38117 
 C                     4.47616   0.09675   3.13078 
 C                     5.51634   1.0155    1.129 
 H                     3.46905  -0.81826   4.81337 
 C                     5.40114  -1.26783  -3.42128 
 C                     6.08015  -2.41281  -1.41463 
 H                     5.06459  -1.91088   0.3854 
 C                     5.56384   0.60556   3.89023 
 C                     6.55796   1.49063   1.88315 
 H                     5.50778   1.19503   0.06009 
 C                     6.20888  -2.18731  -2.80409 
 H                     5.4799   -1.0915   -4.49105 
 H                     6.70632  -3.1564   -0.93054 
 C                     6.58528   1.28761   3.28278 
 H                     5.5705    0.43919   4.96438 
 H                     7.36685   2.03341   1.4032 
 H                     6.93977  -2.74888  -3.37824 
 H                     7.41421   1.67207   3.86928 
 C                     1.18306   4.4394   -1.28394 
 C                    -0.26557   2.91079  -2.43829 
 C                     0.79831   5.45591  -2.15639 
 H                     1.88918   4.67072  -0.49491 
 C                    -0.64729   3.92256  -3.3144 
 H                    -0.7113    1.92806  -2.54054 
 C                    -0.11372   5.20171  -3.1775 
 H                     1.21533   6.45122  -2.03281 
 H                    -1.37071   3.70669  -4.09516 
 H                    -0.41183   5.99588  -3.85566 
 C                     3.18925   3.18728   0.89519 
 C                     1.30667   2.73006   2.31659 
 C                     3.80469   3.8897    1.9257 
 H                     3.70239   3.08327  -0.05716 
 C                     1.9231    3.42704   3.35433 
 H                     0.34086   2.25804   2.46839 
 C                     3.17346   4.00901   3.16187 
 H                     4.78596   4.32671   1.76825 
 H                     1.42557   3.51132   4.31637 
 H                     3.65683   4.5471    3.97209 
 C                    -0.50076  -3.83769   1.29545 
 C                    -0.71203  -2.08927   2.92939 
 C                    -1.39412  -4.62252   2.02591 
 H                    -0.09765  -4.22769   0.36691 
 C                    -1.58999  -2.87639   3.66733 
 H                    -0.50558  -1.07408   3.25611 
 C                    -1.93693  -4.14945   3.21555 
 H                    -1.66649  -5.60608   1.65446 
 H                    -2.02005  -2.48525   4.58458 
 H                    -2.63191  -4.76068   3.783 
 C                     2.37407  -3.60242  -0.14344 
 C                     1.46793  -2.25886  -1.9209 
 C                     3.0061   -4.41387  -1.07875 
 H                     2.49874  -3.80708   0.9173 
 C                     2.10634  -3.06336  -2.86126 
 H                     0.89811  -1.38742  -2.22555 
 C                     2.8731   -4.1454   -2.44124 
 H                     3.61714  -5.24772  -0.7458 
 H                     2.01738  -2.83272  -3.91913 
 H                     3.3803   -4.77118  -3.16961 
 
 Add virtual bond connecting atoms H8         and C3         Dist= 3.26D+00.
 Add virtual bond connecting atoms H14        and O4         Dist= 3.54D+00.

 GradGradGradGradGradGradGradGradGradGradGradGradGradGradGradGradGradGrad
 Berny optimization.
 Initialization pass.
                           ----------------------------
                           !    Initial Parameters    !
                           ! (Angstroms and Degrees)  !
 --------------------------                            --------------------------
 ! Name  Definition              Value          Derivative Info.                !
 --------------------------------------------------------------------------------
 ! R1    R(1,2)                  1.0981         calculate D2E/DX2 analytically  !
 ! R2    R(2,3)                  1.5257         calculate D2E/DX2 analytically  !
 ! R3    R(2,6)                  1.0912         calculate D2E/DX2 analytically  !
 ! R4    R(2,7)                  1.0921         calculate D2E/DX2 analytically  !
 ! R5    R(3,4)                  1.2576         calculate D2E/DX2 analytically  !
 ! R6    R(3,5)                  1.5204         calculate D2E/DX2 analytically  !
 ! R7    R(3,8)                  1.7234         calculate D2E/DX2 analytically  !
 ! R8    R(4,14)                 1.874          calculate D2E/DX2 analytically  !
 ! R9    R(5,22)                 1.3988         calculate D2E/DX2 analytically  !
 ! R10   R(5,23)                 1.3965         calculate D2E/DX2 analytically  !
 ! R11   R(8,52)                 1.8021         calculate D2E/DX2 analytically  !
 ! R12   R(9,52)                 1.6468         calculate D2E/DX2 analytically  !
 ! R13   R(10,12)                1.4765         calculate D2E/DX2 analytically  !
 ! R14   R(10,13)                1.0175         calculate D2E/DX2 analytically  !
 ! R15   R(10,14)                1.0311         calculate D2E/DX2 analytically  !
 ! R16   R(10,52)                2.1639         calculate D2E/DX2 analytically  !
 ! R17   R(11,15)                1.4804         calculate D2E/DX2 analytically  !
 ! R18   R(11,16)                1.0198         calculate D2E/DX2 analytically  !
 ! R19   R(11,17)                1.017          calculate D2E/DX2 analytically  !
 ! R20   R(11,52)                2.1789         calculate D2E/DX2 analytically  !
 ! R21   R(12,15)                1.5368         calculate D2E/DX2 analytically  !
 ! R22   R(12,18)                1.5156         calculate D2E/DX2 analytically  !
 ! R23   R(12,19)                1.0945         calculate D2E/DX2 analytically  !
 ! R24   R(15,20)                1.0914         calculate D2E/DX2 analytically  !
 ! R25   R(15,21)                1.5124         calculate D2E/DX2 analytically  !
 ! R26   R(18,32)                1.3995         calculate D2E/DX2 analytically  !
 ! R27   R(18,33)                1.395          calculate D2E/DX2 analytically  !
 ! R28   R(21,42)                1.3986         calculate D2E/DX2 analytically  !
 ! R29   R(21,43)                1.3947         calculate D2E/DX2 analytically  !
 ! R30   R(22,26)                1.3916         calculate D2E/DX2 analytically  !
 ! R31   R(22,27)                1.0852         calculate D2E/DX2 analytically  !
 ! R32   R(23,25)                1.3942         calculate D2E/DX2 analytically  !
 ! R33   R(23,31)                1.0858         calculate D2E/DX2 analytically  !
 ! R34   R(24,25)                1.392          calculate D2E/DX2 analytically  !
 ! R35   R(24,26)                1.3957         calculate D2E/DX2 analytically  !
 ! R36   R(24,29)                1.0859         calculate D2E/DX2 analytically  !
 ! R37   R(25,30)                1.0862         calculate D2E/DX2 analytically  !
 ! R38   R(26,28)                1.0861         calculate D2E/DX2 analytically  !
 ! R39   R(32,36)                1.3918         calculate D2E/DX2 analytically  !
 ! R40   R(32,37)                1.0887         calculate D2E/DX2 analytically  !
 ! R41   R(33,35)                1.3935         calculate D2E/DX2 analytically  !
 ! R42   R(33,41)                1.0873         calculate D2E/DX2 analytically  !
 ! R43   R(34,35)                1.3924         calculate D2E/DX2 analytically  !
 ! R44   R(34,36)                1.3946         calculate D2E/DX2 analytically  !
 ! R45   R(34,39)                1.086          calculate D2E/DX2 analytically  !
 ! R46   R(35,40)                1.0861         calculate D2E/DX2 analytically  !
 ! R47   R(36,38)                1.0862         calculate D2E/DX2 analytically  !
 ! R48   R(42,46)                1.3914         calculate D2E/DX2 analytically  !
 ! R49   R(42,47)                1.0886         calculate D2E/DX2 analytically  !
 ! R50   R(43,45)                1.3934         calculate D2E/DX2 analytically  !
 ! R51   R(43,51)                1.0866         calculate D2E/DX2 analytically  !
 ! R52   R(44,45)                1.3926         calculate D2E/DX2 analytically  !
 ! R53   R(44,46)                1.3943         calculate D2E/DX2 analytically  !
 ! R54   R(44,49)                1.0859         calculate D2E/DX2 analytically  !
 ! R55   R(45,50)                1.086          calculate D2E/DX2 analytically  !
 ! R56   R(46,48)                1.086          calculate D2E/DX2 analytically  !
 ! R57   R(52,53)                2.2728         calculate D2E/DX2 analytically  !
 ! R58   R(52,54)                2.263          calculate D2E/DX2 analytically  !
 ! R59   R(53,55)                1.8586         calculate D2E/DX2 analytically  !
 ! R60   R(53,56)                1.8498         calculate D2E/DX2 analytically  !
 ! R61   R(53,57)                1.8569         calculate D2E/DX2 analytically  !
 ! R62   R(54,58)                1.8528         calculate D2E/DX2 analytically  !
 ! R63   R(54,59)                1.8439         calculate D2E/DX2 analytically  !
 ! R64   R(54,60)                1.8597         calculate D2E/DX2 analytically  !
 ! R65   R(55,91)                1.3999         calculate D2E/DX2 analytically  !
 ! R66   R(55,92)                1.4005         calculate D2E/DX2 analytically  !
 ! R67   R(56,101)               1.3999         calculate D2E/DX2 analytically  !
 ! R68   R(56,102)               1.3962         calculate D2E/DX2 analytically  !
 ! R69   R(57,61)                1.3882         calculate D2E/DX2 analytically  !
 ! R70   R(57,62)                1.421          calculate D2E/DX2 analytically  !
 ! R71   R(58,111)               1.3983         calculate D2E/DX2 analytically  !
 ! R72   R(58,112)               1.4053         calculate D2E/DX2 analytically  !
 ! R73   R(59,121)               1.3997         calculate D2E/DX2 analytically  !
 ! R74   R(59,122)               1.392          calculate D2E/DX2 analytically  !
 ! R75   R(60,63)                1.3894         calculate D2E/DX2 analytically  !
 ! R76   R(60,64)                1.4197         calculate D2E/DX2 analytically  !
 ! R77   R(61,63)                1.5024         calculate D2E/DX2 analytically  !
 ! R78   R(61,65)                1.4378         calculate D2E/DX2 analytically  !
 ! R79   R(62,66)                1.367          calculate D2E/DX2 analytically  !
 ! R80   R(62,67)                1.0847         calculate D2E/DX2 analytically  !
 ! R81   R(63,68)                1.4372         calculate D2E/DX2 analytically  !
 ! R82   R(64,69)                1.3675         calculate D2E/DX2 analytically  !
 ! R83   R(64,70)                1.0827         calculate D2E/DX2 analytically  !
 ! R84   R(65,71)                1.4211         calculate D2E/DX2 analytically  !
 ! R85   R(65,72)                1.4222         calculate D2E/DX2 analytically  !
 ! R86   R(66,71)                1.4163         calculate D2E/DX2 analytically  !
 ! R87   R(66,73)                1.087          calculate D2E/DX2 analytically  !
 ! R88   R(68,74)                1.4212         calculate D2E/DX2 analytically  !
 ! R89   R(68,75)                1.4235         calculate D2E/DX2 analytically  !
 ! R90   R(69,74)                1.4152         calculate D2E/DX2 analytically  !
 ! R91   R(69,76)                1.087          calculate D2E/DX2 analytically  !
 ! R92   R(71,77)                1.4194         calculate D2E/DX2 analytically  !
 ! R93   R(72,78)                1.3712         calculate D2E/DX2 analytically  !
 ! R94   R(72,79)                1.0839         calculate D2E/DX2 analytically  !
 ! R95   R(74,80)                1.4208         calculate D2E/DX2 analytically  !
 ! R96   R(75,81)                1.3709         calculate D2E/DX2 analytically  !
 ! R97   R(75,82)                1.0839         calculate D2E/DX2 analytically  !
 ! R98   R(77,83)                1.3707         calculate D2E/DX2 analytically  !
 ! R99   R(77,84)                1.0871         calculate D2E/DX2 analytically  !
 ! R100  R(78,83)                1.4135         calculate D2E/DX2 analytically  !
 ! R101  R(78,85)                1.086          calculate D2E/DX2 analytically  !
 ! R102  R(80,86)                1.3702         calculate D2E/DX2 analytically  !
 ! R103  R(80,87)                1.087          calculate D2E/DX2 analytically  !
 ! R104  R(81,86)                1.4145         calculate D2E/DX2 analytically  !
 ! R105  R(81,88)                1.0859         calculate D2E/DX2 analytically  !
 ! R106  R(83,89)                1.0859         calculate D2E/DX2 analytically  !
 ! R107  R(86,90)                1.0858         calculate D2E/DX2 analytically  !
 ! R108  R(91,93)                1.3937         calculate D2E/DX2 analytically  !
 ! R109  R(91,94)                1.0838         calculate D2E/DX2 analytically  !
 ! R110  R(92,95)                1.3917         calculate D2E/DX2 analytically  !
 ! R111  R(92,96)                1.0839         calculate D2E/DX2 analytically  !
 ! R112  R(93,97)                1.3925         calculate D2E/DX2 analytically  !
 ! R113  R(93,98)                1.0862         calculate D2E/DX2 analytically  !
 ! R114  R(95,97)                1.3927         calculate D2E/DX2 analytically  !
 ! R115  R(95,99)                1.0861         calculate D2E/DX2 analytically  !
 ! R116  R(97,100)               1.086          calculate D2E/DX2 analytically  !
 ! R117  R(101,103)              1.3907         calculate D2E/DX2 analytically  !
 ! R118  R(101,104)              1.0868         calculate D2E/DX2 analytically  !
 ! R119  R(102,105)              1.3938         calculate D2E/DX2 analytically  !
 ! R120  R(102,106)              1.0856         calculate D2E/DX2 analytically  !
 ! R121  R(103,107)              1.3931         calculate D2E/DX2 analytically  !
 ! R122  R(103,108)              1.0857         calculate D2E/DX2 analytically  !
 ! R123  R(105,107)              1.3925         calculate D2E/DX2 analytically  !
 ! R124  R(105,109)              1.0864         calculate D2E/DX2 analytically  !
 ! R125  R(107,110)              1.0861         calculate D2E/DX2 analytically  !
 ! R126  R(111,113)              1.3956         calculate D2E/DX2 analytically  !
 ! R127  R(111,114)              1.0848         calculate D2E/DX2 analytically  !
 ! R128  R(112,115)              1.391          calculate D2E/DX2 analytically  !
 ! R129  R(112,116)              1.0863         calculate D2E/DX2 analytically  !
 ! R130  R(113,117)              1.3906         calculate D2E/DX2 analytically  !
 ! R131  R(113,118)              1.0861         calculate D2E/DX2 analytically  !
 ! R132  R(115,117)              1.3947         calculate D2E/DX2 analytically  !
 ! R133  R(115,119)              1.086          calculate D2E/DX2 analytically  !
 ! R134  R(117,120)              1.0856         calculate D2E/DX2 analytically  !
 ! R135  R(121,123)              1.3902         calculate D2E/DX2 analytically  !
 ! R136  R(121,124)              1.0875         calculate D2E/DX2 analytically  !
 ! R137  R(122,125)              1.3925         calculate D2E/DX2 analytically  !
 ! R138  R(122,126)              1.0849         calculate D2E/DX2 analytically  !
 ! R139  R(123,127)              1.395          calculate D2E/DX2 analytically  !
 ! R140  R(123,128)              1.0861         calculate D2E/DX2 analytically  !
 ! R141  R(125,127)              1.3911         calculate D2E/DX2 analytically  !
 ! R142  R(125,129)              1.0864         calculate D2E/DX2 analytically  !
 ! R143  R(127,130)              1.086          calculate D2E/DX2 analytically  !
 ! A1    A(1,2,3)              107.0988         calculate D2E/DX2 analytically  !
 ! A2    A(1,2,6)              107.8795         calculate D2E/DX2 analytically  !
 ! A3    A(1,2,7)              108.4798         calculate D2E/DX2 analytically  !
 ! A4    A(3,2,6)              112.7249         calculate D2E/DX2 analytically  !
 ! A5    A(3,2,7)              111.0905         calculate D2E/DX2 analytically  !
 ! A6    A(6,2,7)              109.4073         calculate D2E/DX2 analytically  !
 ! A7    A(2,3,4)              118.2768         calculate D2E/DX2 analytically  !
 ! A8    A(2,3,5)              114.7473         calculate D2E/DX2 analytically  !
 ! A9    A(2,3,8)               94.1465         calculate D2E/DX2 analytically  !
 ! A10   A(4,3,5)              117.9201         calculate D2E/DX2 analytically  !
 ! A11   A(4,3,8)              107.7923         calculate D2E/DX2 analytically  !
 ! A12   A(5,3,8)               98.007          calculate D2E/DX2 analytically  !
 ! A13   A(3,4,14)             107.9931         calculate D2E/DX2 analytically  !
 ! A14   A(3,5,22)             123.3773         calculate D2E/DX2 analytically  !
 ! A15   A(3,5,23)             117.9047         calculate D2E/DX2 analytically  !
 ! A16   A(22,5,23)            118.6961         calculate D2E/DX2 analytically  !
 ! A17   A(3,8,52)             146.1504         calculate D2E/DX2 analytically  !
 ! A18   A(12,10,13)           109.4413         calculate D2E/DX2 analytically  !
 ! A19   A(12,10,14)           109.4679         calculate D2E/DX2 analytically  !
 ! A20   A(12,10,52)           110.0331         calculate D2E/DX2 analytically  !
 ! A21   A(13,10,14)           107.2801         calculate D2E/DX2 analytically  !
 ! A22   A(13,10,52)           115.1552         calculate D2E/DX2 analytically  !
 ! A23   A(14,10,52)           105.2502         calculate D2E/DX2 analytically  !
 ! A24   A(15,11,16)           108.5557         calculate D2E/DX2 analytically  !
 ! A25   A(15,11,17)           109.7208         calculate D2E/DX2 analytically  !
 ! A26   A(15,11,52)           113.3366         calculate D2E/DX2 analytically  !
 ! A27   A(16,11,17)           105.6863         calculate D2E/DX2 analytically  !
 ! A28   A(16,11,52)           112.132          calculate D2E/DX2 analytically  !
 ! A29   A(17,11,52)           107.1113         calculate D2E/DX2 analytically  !
 ! A30   A(10,12,15)           106.8706         calculate D2E/DX2 analytically  !
 ! A31   A(10,12,18)           113.9217         calculate D2E/DX2 analytically  !
 ! A32   A(10,12,19)           106.7312         calculate D2E/DX2 analytically  !
 ! A33   A(15,12,18)           110.6195         calculate D2E/DX2 analytically  !
 ! A34   A(15,12,19)           109.045          calculate D2E/DX2 analytically  !
 ! A35   A(18,12,19)           109.4782         calculate D2E/DX2 analytically  !
 ! A36   A(4,14,10)            159.9644         calculate D2E/DX2 analytically  !
 ! A37   A(11,15,12)           109.4253         calculate D2E/DX2 analytically  !
 ! A38   A(11,15,20)           106.275          calculate D2E/DX2 analytically  !
 ! A39   A(11,15,21)           112.3914         calculate D2E/DX2 analytically  !
 ! A40   A(12,15,20)           106.6062         calculate D2E/DX2 analytically  !
 ! A41   A(12,15,21)           112.7493         calculate D2E/DX2 analytically  !
 ! A42   A(20,15,21)           109.0254         calculate D2E/DX2 analytically  !
 ! A43   A(12,18,32)           120.6076         calculate D2E/DX2 analytically  !
 ! A44   A(12,18,33)           120.2592         calculate D2E/DX2 analytically  !
 ! A45   A(32,18,33)           119.0909         calculate D2E/DX2 analytically  !
 ! A46   A(15,21,42)           120.5271         calculate D2E/DX2 analytically  !
 ! A47   A(15,21,43)           120.5168         calculate D2E/DX2 analytically  !
 ! A48   A(42,21,43)           118.9561         calculate D2E/DX2 analytically  !
 ! A49   A(5,22,26)            120.6485         calculate D2E/DX2 analytically  !
 ! A50   A(5,22,27)            119.5893         calculate D2E/DX2 analytically  !
 ! A51   A(26,22,27)           119.6978         calculate D2E/DX2 analytically  !
 ! A52   A(5,23,25)            120.7904         calculate D2E/DX2 analytically  !
 ! A53   A(5,23,31)            118.6525         calculate D2E/DX2 analytically  !
 ! A54   A(25,23,31)           120.5516         calculate D2E/DX2 analytically  !
 ! A55   A(25,24,26)           119.5246         calculate D2E/DX2 analytically  !
 ! A56   A(25,24,29)           120.3063         calculate D2E/DX2 analytically  !
 ! A57   A(26,24,29)           120.169          calculate D2E/DX2 analytically  !
 ! A58   A(23,25,24)           120.1025         calculate D2E/DX2 analytically  !
 ! A59   A(23,25,30)           119.7741         calculate D2E/DX2 analytically  !
 ! A60   A(24,25,30)           120.1227         calculate D2E/DX2 analytically  !
 ! A61   A(22,26,24)           120.2187         calculate D2E/DX2 analytically  !
 ! A62   A(22,26,28)           119.68           calculate D2E/DX2 analytically  !
 ! A63   A(24,26,28)           120.099          calculate D2E/DX2 analytically  !
 ! A64   A(18,32,36)           120.3094         calculate D2E/DX2 analytically  !
 ! A65   A(18,32,37)           119.8239         calculate D2E/DX2 analytically  !
 ! A66   A(36,32,37)           119.8666         calculate D2E/DX2 analytically  !
 ! A67   A(18,33,35)           120.6426         calculate D2E/DX2 analytically  !
 ! A68   A(18,33,41)           119.4504         calculate D2E/DX2 analytically  !
 ! A69   A(35,33,41)           119.9043         calculate D2E/DX2 analytically  !
 ! A70   A(35,34,36)           119.7011         calculate D2E/DX2 analytically  !
 ! A71   A(35,34,39)           120.1682         calculate D2E/DX2 analytically  !
 ! A72   A(36,34,39)           120.1306         calculate D2E/DX2 analytically  !
 ! A73   A(33,35,34)           120.002          calculate D2E/DX2 analytically  !
 ! A74   A(33,35,40)           119.79           calculate D2E/DX2 analytically  !
 ! A75   A(34,35,40)           120.208          calculate D2E/DX2 analytically  !
 ! A76   A(32,36,34)           120.2538         calculate D2E/DX2 analytically  !
 ! A77   A(32,36,38)           119.7634         calculate D2E/DX2 analytically  !
 ! A78   A(34,36,38)           119.9824         calculate D2E/DX2 analytically  !
 ! A79   A(21,42,46)           120.6047         calculate D2E/DX2 analytically  !
 ! A80   A(21,42,47)           120.181          calculate D2E/DX2 analytically  !
 ! A81   A(46,42,47)           119.2139         calculate D2E/DX2 analytically  !
 ! A82   A(21,43,45)           120.593          calculate D2E/DX2 analytically  !
 ! A83   A(21,43,51)           119.3631         calculate D2E/DX2 analytically  !
 ! A84   A(45,43,51)           120.0438         calculate D2E/DX2 analytically  !
 ! A85   A(45,44,46)           119.7153         calculate D2E/DX2 analytically  !
 ! A86   A(45,44,49)           120.2154         calculate D2E/DX2 analytically  !
 ! A87   A(46,44,49)           120.0692         calculate D2E/DX2 analytically  !
 ! A88   A(43,45,44)           120.0912         calculate D2E/DX2 analytically  !
 ! A89   A(43,45,50)           119.7538         calculate D2E/DX2 analytically  !
 ! A90   A(44,45,50)           120.1546         calculate D2E/DX2 analytically  !
 ! A91   A(42,46,44)           120.0376         calculate D2E/DX2 analytically  !
 ! A92   A(42,46,48)           119.8127         calculate D2E/DX2 analytically  !
 ! A93   A(44,46,48)           120.1497         calculate D2E/DX2 analytically  !
 ! A94   A(8,52,10)             85.3428         calculate D2E/DX2 analytically  !
 ! A95   A(8,52,11)             86.9876         calculate D2E/DX2 analytically  !
 ! A96   A(8,52,53)             97.2917         calculate D2E/DX2 analytically  !
 ! A97   A(8,52,54)             97.7592         calculate D2E/DX2 analytically  !
 ! A98   A(9,52,10)             89.2576         calculate D2E/DX2 analytically  !
 ! A99   A(9,52,11)             84.7848         calculate D2E/DX2 analytically  !
 ! A100  A(9,52,53)             90.5101         calculate D2E/DX2 analytically  !
 ! A101  A(9,52,54)             86.4962         calculate D2E/DX2 analytically  !
 ! A102  A(10,52,11)            77.5829         calculate D2E/DX2 analytically  !
 ! A103  A(10,52,53)            96.67           calculate D2E/DX2 analytically  !
 ! A104  A(11,52,54)            93.7231         calculate D2E/DX2 analytically  !
 ! A105  A(53,52,54)            91.6985         calculate D2E/DX2 analytically  !
 ! A106  A(52,53,55)           114.2856         calculate D2E/DX2 analytically  !
 ! A107  A(52,53,56)           121.4556         calculate D2E/DX2 analytically  !
 ! A108  A(52,53,57)           113.3058         calculate D2E/DX2 analytically  !
 ! A109  A(55,53,56)           100.4824         calculate D2E/DX2 analytically  !
 ! A110  A(55,53,57)           103.3056         calculate D2E/DX2 analytically  !
 ! A111  A(56,53,57)           101.6016         calculate D2E/DX2 analytically  !
 ! A112  A(52,54,58)           107.9004         calculate D2E/DX2 analytically  !
 ! A113  A(52,54,59)           124.0404         calculate D2E/DX2 analytically  !
 ! A114  A(52,54,60)           116.2562         calculate D2E/DX2 analytically  !
 ! A115  A(58,54,59)           101.9237         calculate D2E/DX2 analytically  !
 ! A116  A(58,54,60)           106.0235         calculate D2E/DX2 analytically  !
 ! A117  A(59,54,60)            98.6809         calculate D2E/DX2 analytically  !
 ! A118  A(53,55,91)           124.8141         calculate D2E/DX2 analytically  !
 ! A119  A(53,55,92)           117.0798         calculate D2E/DX2 analytically  !
 ! A120  A(91,55,92)           118.0961         calculate D2E/DX2 analytically  !
 ! A121  A(53,56,101)          120.9549         calculate D2E/DX2 analytically  !
 ! A122  A(53,56,102)          120.5222         calculate D2E/DX2 analytically  !
 ! A123  A(101,56,102)         118.4839         calculate D2E/DX2 analytically  !
 ! A124  A(53,57,61)           121.4153         calculate D2E/DX2 analytically  !
 ! A125  A(53,57,62)           118.5311         calculate D2E/DX2 analytically  !
 ! A126  A(61,57,62)           119.4431         calculate D2E/DX2 analytically  !
 ! A127  A(54,58,111)          121.6332         calculate D2E/DX2 analytically  !
 ! A128  A(54,58,112)          119.2293         calculate D2E/DX2 analytically  !
 ! A129  A(111,58,112)         117.9405         calculate D2E/DX2 analytically  !
 ! A130  A(54,59,121)          121.8375         calculate D2E/DX2 analytically  !
 ! A131  A(54,59,122)          119.0598         calculate D2E/DX2 analytically  !
 ! A132  A(121,59,122)         118.9932         calculate D2E/DX2 analytically  !
 ! A133  A(54,60,63)           119.9207         calculate D2E/DX2 analytically  !
 ! A134  A(54,60,64)           120.6469         calculate D2E/DX2 analytically  !
 ! A135  A(63,60,64)           119.3082         calculate D2E/DX2 analytically  !
 ! A136  A(57,61,63)           122.9002         calculate D2E/DX2 analytically  !
 ! A137  A(57,61,65)           119.6973         calculate D2E/DX2 analytically  !
 ! A138  A(63,61,65)           117.3892         calculate D2E/DX2 analytically  !
 ! A139  A(57,62,66)           121.5693         calculate D2E/DX2 analytically  !
 ! A140  A(57,62,67)           119.2919         calculate D2E/DX2 analytically  !
 ! A141  A(66,62,67)           119.1373         calculate D2E/DX2 analytically  !
 ! A142  A(60,63,61)           122.7661         calculate D2E/DX2 analytically  !
 ! A143  A(60,63,68)           119.7684         calculate D2E/DX2 analytically  !
 ! A144  A(61,63,68)           117.4206         calculate D2E/DX2 analytically  !
 ! A145  A(60,64,69)           121.6581         calculate D2E/DX2 analytically  !
 ! A146  A(60,64,70)           119.6879         calculate D2E/DX2 analytically  !
 ! A147  A(69,64,70)           118.648          calculate D2E/DX2 analytically  !
 ! A148  A(61,65,71)           119.7989         calculate D2E/DX2 analytically  !
 ! A149  A(61,65,72)           122.3251         calculate D2E/DX2 analytically  !
 ! A150  A(71,65,72)           117.8689         calculate D2E/DX2 analytically  !
 ! A151  A(62,66,71)           120.6098         calculate D2E/DX2 analytically  !
 ! A152  A(62,66,73)           120.2991         calculate D2E/DX2 analytically  !
 ! A153  A(71,66,73)           119.0911         calculate D2E/DX2 analytically  !
 ! A154  A(63,68,74)           119.7653         calculate D2E/DX2 analytically  !
 ! A155  A(63,68,75)           122.4341         calculate D2E/DX2 analytically  !
 ! A156  A(74,68,75)           117.7973         calculate D2E/DX2 analytically  !
 ! A157  A(64,69,74)           120.584          calculate D2E/DX2 analytically  !
 ! A158  A(64,69,76)           120.2678         calculate D2E/DX2 analytically  !
 ! A159  A(74,69,76)           119.1443         calculate D2E/DX2 analytically  !
 ! A160  A(65,71,66)           118.8607         calculate D2E/DX2 analytically  !
 ! A161  A(65,71,77)           119.801          calculate D2E/DX2 analytically  !
 ! A162  A(66,71,77)           121.3352         calculate D2E/DX2 analytically  !
 ! A163  A(65,72,78)           121.1894         calculate D2E/DX2 analytically  !
 ! A164  A(65,72,79)           119.2012         calculate D2E/DX2 analytically  !
 ! A165  A(78,72,79)           119.6022         calculate D2E/DX2 analytically  !
 ! A166  A(68,74,69)           118.8683         calculate D2E/DX2 analytically  !
 ! A167  A(68,74,80)           119.8273         calculate D2E/DX2 analytically  !
 ! A168  A(69,74,80)           121.3007         calculate D2E/DX2 analytically  !
 ! A169  A(68,75,81)           121.2505         calculate D2E/DX2 analytically  !
 ! A170  A(68,75,82)           119.3338         calculate D2E/DX2 analytically  !
 ! A171  A(81,75,82)           119.4118         calculate D2E/DX2 analytically  !
 ! A172  A(71,77,83)           120.7757         calculate D2E/DX2 analytically  !
 ! A173  A(71,77,84)           118.6108         calculate D2E/DX2 analytically  !
 ! A174  A(83,77,84)           120.613          calculate D2E/DX2 analytically  !
 ! A175  A(72,78,83)           120.6139         calculate D2E/DX2 analytically  !
 ! A176  A(72,78,85)           119.7199         calculate D2E/DX2 analytically  !
 ! A177  A(83,78,85)           119.6632         calculate D2E/DX2 analytically  !
 ! A178  A(74,80,86)           120.7947         calculate D2E/DX2 analytically  !
 ! A179  A(74,80,87)           118.5608         calculate D2E/DX2 analytically  !
 ! A180  A(86,80,87)           120.6442         calculate D2E/DX2 analytically  !
 ! A181  A(75,81,86)           120.6128         calculate D2E/DX2 analytically  !
 ! A182  A(75,81,88)           119.7384         calculate D2E/DX2 analytically  !
 ! A183  A(86,81,88)           119.6476         calculate D2E/DX2 analytically  !
 ! A184  A(77,83,78)           119.7333         calculate D2E/DX2 analytically  !
 ! A185  A(77,83,89)           120.3622         calculate D2E/DX2 analytically  !
 ! A186  A(78,83,89)           119.9022         calculate D2E/DX2 analytically  !
 ! A187  A(80,86,81)           119.7152         calculate D2E/DX2 analytically  !
 ! A188  A(80,86,90)           120.3908         calculate D2E/DX2 analytically  !
 ! A189  A(81,86,90)           119.894          calculate D2E/DX2 analytically  !
 ! A190  A(55,91,93)           120.7761         calculate D2E/DX2 analytically  !
 ! A191  A(55,91,94)           120.544          calculate D2E/DX2 analytically  !
 ! A192  A(93,91,94)           118.6787         calculate D2E/DX2 analytically  !
 ! A193  A(55,92,95)           121.2428         calculate D2E/DX2 analytically  !
 ! A194  A(55,92,96)           119.6074         calculate D2E/DX2 analytically  !
 ! A195  A(95,92,96)           119.1399         calculate D2E/DX2 analytically  !
 ! A196  A(91,93,97)           120.4431         calculate D2E/DX2 analytically  !
 ! A197  A(91,93,98)           119.4137         calculate D2E/DX2 analytically  !
 ! A198  A(97,93,98)           120.1431         calculate D2E/DX2 analytically  !
 ! A199  A(92,95,97)           120.0495         calculate D2E/DX2 analytically  !
 ! A200  A(92,95,99)           119.3891         calculate D2E/DX2 analytically  !
 ! A201  A(97,95,99)           120.558          calculate D2E/DX2 analytically  !
 ! A202  A(93,97,95)           119.3842         calculate D2E/DX2 analytically  !
 ! A203  A(93,97,100)          120.2765         calculate D2E/DX2 analytically  !
 ! A204  A(95,97,100)          120.3376         calculate D2E/DX2 analytically  !
 ! A205  A(56,101,103)         120.9707         calculate D2E/DX2 analytically  !
 ! A206  A(56,101,104)         119.7643         calculate D2E/DX2 analytically  !
 ! A207  A(103,101,104)        119.2566         calculate D2E/DX2 analytically  !
 ! A208  A(56,102,105)         120.7315         calculate D2E/DX2 analytically  !
 ! A209  A(56,102,106)         118.8003         calculate D2E/DX2 analytically  !
 ! A210  A(105,102,106)        120.4483         calculate D2E/DX2 analytically  !
 ! A211  A(101,103,107)        120.0164         calculate D2E/DX2 analytically  !
 ! A212  A(101,103,108)        119.724          calculate D2E/DX2 analytically  !
 ! A213  A(107,103,108)        120.2486         calculate D2E/DX2 analytically  !
 ! A214  A(102,105,107)        120.212          calculate D2E/DX2 analytically  !
 ! A215  A(102,105,109)        119.709          calculate D2E/DX2 analytically  !
 ! A216  A(107,105,109)        120.0786         calculate D2E/DX2 analytically  !
 ! A217  A(103,107,105)        119.5835         calculate D2E/DX2 analytically  !
 ! A218  A(103,107,110)        120.1796         calculate D2E/DX2 analytically  !
 ! A219  A(105,107,110)        120.2357         calculate D2E/DX2 analytically  !
 ! A220  A(58,111,113)         120.9406         calculate D2E/DX2 analytically  !
 ! A221  A(58,111,114)         120.1284         calculate D2E/DX2 analytically  !
 ! A222  A(113,111,114)        118.9276         calculate D2E/DX2 analytically  !
 ! A223  A(58,112,115)         121.1902         calculate D2E/DX2 analytically  !
 ! A224  A(58,112,116)         119.4563         calculate D2E/DX2 analytically  !
 ! A225  A(115,112,116)        119.2898         calculate D2E/DX2 analytically  !
 ! A226  A(111,113,117)        120.4201         calculate D2E/DX2 analytically  !
 ! A227  A(111,113,118)        119.3946         calculate D2E/DX2 analytically  !
 ! A228  A(117,113,118)        120.1845         calculate D2E/DX2 analytically  !
 ! A229  A(112,115,117)        120.1107         calculate D2E/DX2 analytically  !
 ! A230  A(112,115,119)        119.6193         calculate D2E/DX2 analytically  !
 ! A231  A(117,115,119)        120.256          calculate D2E/DX2 analytically  !
 ! A232  A(113,117,115)        119.3769         calculate D2E/DX2 analytically  !
 ! A233  A(113,117,120)        120.3651         calculate D2E/DX2 analytically  !
 ! A234  A(115,117,120)        120.2553         calculate D2E/DX2 analytically  !
 ! A235  A(59,121,123)         120.4114         calculate D2E/DX2 analytically  !
 ! A236  A(59,121,124)         119.9661         calculate D2E/DX2 analytically  !
 ! A237  A(123,121,124)        119.6219         calculate D2E/DX2 analytically  !
 ! A238  A(59,122,125)         120.7997         calculate D2E/DX2 analytically  !
 ! A239  A(59,122,126)         118.1434         calculate D2E/DX2 analytically  !
 ! A240  A(125,122,126)        121.0138         calculate D2E/DX2 analytically  !
 ! A241  A(121,123,127)        120.093          calculate D2E/DX2 analytically  !
 ! A242  A(121,123,128)        119.8459         calculate D2E/DX2 analytically  !
 ! A243  A(127,123,128)        120.0534         calculate D2E/DX2 analytically  !
 ! A244  A(122,125,127)        119.88           calculate D2E/DX2 analytically  !
 ! A245  A(122,125,129)        119.8276         calculate D2E/DX2 analytically  !
 ! A246  A(127,125,129)        120.2837         calculate D2E/DX2 analytically  !
 ! A247  A(123,127,125)        119.8103         calculate D2E/DX2 analytically  !
 ! A248  A(123,127,130)        119.9749         calculate D2E/DX2 analytically  !
 ! A249  A(125,127,130)        120.2078         calculate D2E/DX2 analytically  !
 ! A250  L(8,52,9,10,-1)       174.6003         calculate D2E/DX2 analytically  !
 ! A251  L(10,52,54,8,-1)      183.102          calculate D2E/DX2 analytically  !
 ! A252  L(11,52,53,8,-1)      184.2794         calculate D2E/DX2 analytically  !
 ! A253  L(8,52,9,10,-2)       172.7571         calculate D2E/DX2 analytically  !
 ! A254  L(10,52,54,8,-2)      188.8739         calculate D2E/DX2 analytically  !
 ! A255  L(11,52,53,8,-2)      173.921          calculate D2E/DX2 analytically  !
 ! D1    D(1,2,3,4)            -64.9536         calculate D2E/DX2 analytically  !
 ! D2    D(1,2,3,5)             81.4967         calculate D2E/DX2 analytically  !
 ! D3    D(1,2,3,8)           -177.714          calculate D2E/DX2 analytically  !
 ! D4    D(6,2,3,4)            176.5512         calculate D2E/DX2 analytically  !
 ! D5    D(6,2,3,5)            -36.9986         calculate D2E/DX2 analytically  !
 ! D6    D(6,2,3,8)             63.7908         calculate D2E/DX2 analytically  !
 ! D7    D(7,2,3,4)             53.3459         calculate D2E/DX2 analytically  !
 ! D8    D(7,2,3,5)           -160.2039         calculate D2E/DX2 analytically  !
 ! D9    D(7,2,3,8)            -59.4146         calculate D2E/DX2 analytically  !
 ! D10   D(2,3,4,14)          -122.7777         calculate D2E/DX2 analytically  !
 ! D11   D(5,3,4,14)            91.8348         calculate D2E/DX2 analytically  !
 ! D12   D(8,3,4,14)           -17.7755         calculate D2E/DX2 analytically  !
 ! D13   D(2,3,5,22)            53.803          calculate D2E/DX2 analytically  !
 ! D14   D(2,3,5,23)          -124.4676         calculate D2E/DX2 analytically  !
 ! D15   D(4,3,5,22)          -159.6208         calculate D2E/DX2 analytically  !
 ! D16   D(4,3,5,23)            22.1086         calculate D2E/DX2 analytically  !
 ! D17   D(8,3,5,22)           -44.5482         calculate D2E/DX2 analytically  !
 ! D18   D(8,3,5,23)           137.1811         calculate D2E/DX2 analytically  !
 ! D19   D(2,3,8,52)           160.815          calculate D2E/DX2 analytically  !
 ! D20   D(4,3,8,52)            39.3419         calculate D2E/DX2 analytically  !
 ! D21   D(5,3,8,52)           -83.4604         calculate D2E/DX2 analytically  !
 ! D22   D(3,4,14,10)           -8.6624         calculate D2E/DX2 analytically  !
 ! D23   D(3,5,22,26)         -179.8676         calculate D2E/DX2 analytically  !
 ! D24   D(3,5,22,27)            3.0606         calculate D2E/DX2 analytically  !
 ! D25   D(23,5,22,26)          -1.6098         calculate D2E/DX2 analytically  !
 ! D26   D(23,5,22,27)        -178.6817         calculate D2E/DX2 analytically  !
 ! D27   D(3,5,23,25)          179.4286         calculate D2E/DX2 analytically  !
 ! D28   D(3,5,23,31)           -1.4279         calculate D2E/DX2 analytically  !
 ! D29   D(22,5,23,25)           1.0749         calculate D2E/DX2 analytically  !
 ! D30   D(22,5,23,31)        -179.7817         calculate D2E/DX2 analytically  !
 ! D31   D(3,8,52,10)          -24.6979         calculate D2E/DX2 analytically  !
 ! D32   D(3,8,52,11)           53.0771         calculate D2E/DX2 analytically  !
 ! D33   D(3,8,52,53)         -120.8439         calculate D2E/DX2 analytically  !
 ! D34   D(3,8,52,54)          146.4283         calculate D2E/DX2 analytically  !
 ! D35   D(13,10,12,15)       -176.8189         calculate D2E/DX2 analytically  !
 ! D36   D(13,10,12,18)         60.6944         calculate D2E/DX2 analytically  !
 ! D37   D(13,10,12,19)        -60.2533         calculate D2E/DX2 analytically  !
 ! D38   D(14,10,12,15)         65.8666         calculate D2E/DX2 analytically  !
 ! D39   D(14,10,12,18)        -56.6201         calculate D2E/DX2 analytically  !
 ! D40   D(14,10,12,19)       -177.5679         calculate D2E/DX2 analytically  !
 ! D41   D(52,10,12,15)        -49.3374         calculate D2E/DX2 analytically  !
 ! D42   D(52,10,12,18)       -171.8242         calculate D2E/DX2 analytically  !
 ! D43   D(52,10,12,19)         67.2281         calculate D2E/DX2 analytically  !
 ! D44   D(12,10,14,4)         -96.6284         calculate D2E/DX2 analytically  !
 ! D45   D(13,10,14,4)         144.7073         calculate D2E/DX2 analytically  !
 ! D46   D(52,10,14,4)          21.5989         calculate D2E/DX2 analytically  !
 ! D47   D(12,10,52,8)         115.5559         calculate D2E/DX2 analytically  !
 ! D48   D(12,10,52,9)         -57.2013         calculate D2E/DX2 analytically  !
 ! D49   D(12,10,52,11)         27.6219         calculate D2E/DX2 analytically  !
 ! D50   D(12,10,52,53)       -147.628          calculate D2E/DX2 analytically  !
 ! D51   D(13,10,52,8)        -120.2064         calculate D2E/DX2 analytically  !
 ! D52   D(13,10,52,9)          67.0365         calculate D2E/DX2 analytically  !
 ! D53   D(13,10,52,11)        151.8597         calculate D2E/DX2 analytically  !
 ! D54   D(13,10,52,53)        -23.3903         calculate D2E/DX2 analytically  !
 ! D55   D(14,10,52,8)          -2.2904         calculate D2E/DX2 analytically  !
 ! D56   D(14,10,52,9)        -175.0475         calculate D2E/DX2 analytically  !
 ! D57   D(14,10,52,11)        -90.2243         calculate D2E/DX2 analytically  !
 ! D58   D(14,10,52,53)         94.5257         calculate D2E/DX2 analytically  !
 ! D59   D(12,10,54,58)          7.8103         calculate D2E/DX2 analytically  !
 ! D60   D(12,10,54,59)        123.7573         calculate D2E/DX2 analytically  !
 ! D61   D(12,10,54,60)       -108.8819         calculate D2E/DX2 analytically  !
 ! D62   D(13,10,54,58)        130.3332         calculate D2E/DX2 analytically  !
 ! D63   D(13,10,54,59)       -113.7198         calculate D2E/DX2 analytically  !
 ! D64   D(13,10,54,60)         13.641          calculate D2E/DX2 analytically  !
 ! D65   D(14,10,54,58)       -108.5987         calculate D2E/DX2 analytically  !
 ! D66   D(14,10,54,59)          7.3483         calculate D2E/DX2 analytically  !
 ! D67   D(14,10,54,60)        134.709          calculate D2E/DX2 analytically  !
 ! D68   D(16,11,15,12)       -151.5376         calculate D2E/DX2 analytically  !
 ! D69   D(16,11,15,20)        -36.7882         calculate D2E/DX2 analytically  !
 ! D70   D(16,11,15,21)         82.3927         calculate D2E/DX2 analytically  !
 ! D71   D(17,11,15,12)         93.4198         calculate D2E/DX2 analytically  !
 ! D72   D(17,11,15,20)       -151.8308         calculate D2E/DX2 analytically  !
 ! D73   D(17,11,15,21)        -32.6499         calculate D2E/DX2 analytically  !
 ! D74   D(52,11,15,12)        -26.2538         calculate D2E/DX2 analytically  !
 ! D75   D(52,11,15,20)         88.4956         calculate D2E/DX2 analytically  !
 ! D76   D(52,11,15,21)       -152.3235         calculate D2E/DX2 analytically  !
 ! D77   D(15,11,52,8)         -85.9406         calculate D2E/DX2 analytically  !
 ! D78   D(15,11,52,9)          90.3377         calculate D2E/DX2 analytically  !
 ! D79   D(15,11,52,10)         -0.0504         calculate D2E/DX2 analytically  !
 ! D80   D(15,11,52,54)        176.4708         calculate D2E/DX2 analytically  !
 ! D81   D(16,11,52,8)          37.3997         calculate D2E/DX2 analytically  !
 ! D82   D(16,11,52,9)        -146.322          calculate D2E/DX2 analytically  !
 ! D83   D(16,11,52,10)        123.2899         calculate D2E/DX2 analytically  !
 ! D84   D(16,11,52,54)        -60.1889         calculate D2E/DX2 analytically  !
 ! D85   D(17,11,52,8)         152.9054         calculate D2E/DX2 analytically  !
 ! D86   D(17,11,52,9)         -30.8162         calculate D2E/DX2 analytically  !
 ! D87   D(17,11,52,10)       -121.2043         calculate D2E/DX2 analytically  !
 ! D88   D(17,11,52,54)         55.3169         calculate D2E/DX2 analytically  !
 ! D89   D(15,11,53,55)        -23.9655         calculate D2E/DX2 analytically  !
 ! D90   D(15,11,53,56)         93.5273         calculate D2E/DX2 analytically  !
 ! D91   D(15,11,53,57)       -143.4206         calculate D2E/DX2 analytically  !
 ! D92   D(16,11,53,55)         99.8312         calculate D2E/DX2 analytically  !
 ! D93   D(16,11,53,56)       -142.676          calculate D2E/DX2 analytically  !
 ! D94   D(16,11,53,57)        -19.6238         calculate D2E/DX2 analytically  !
 ! D95   D(17,11,53,55)       -143.0313         calculate D2E/DX2 analytically  !
 ! D96   D(17,11,53,56)        -25.5386         calculate D2E/DX2 analytically  !
 ! D97   D(17,11,53,57)         97.5136         calculate D2E/DX2 analytically  !
 ! D98   D(10,12,15,11)         49.0984         calculate D2E/DX2 analytically  !
 ! D99   D(10,12,15,20)        -65.4379         calculate D2E/DX2 analytically  !
 ! D100  D(10,12,15,21)        174.9631         calculate D2E/DX2 analytically  !
 ! D101  D(18,12,15,11)        173.628          calculate D2E/DX2 analytically  !
 ! D102  D(18,12,15,20)         59.0917         calculate D2E/DX2 analytically  !
 ! D103  D(18,12,15,21)        -60.5073         calculate D2E/DX2 analytically  !
 ! D104  D(19,12,15,11)        -65.9217         calculate D2E/DX2 analytically  !
 ! D105  D(19,12,15,20)        179.5419         calculate D2E/DX2 analytically  !
 ! D106  D(19,12,15,21)         59.943          calculate D2E/DX2 analytically  !
 ! D107  D(10,12,18,32)         53.6503         calculate D2E/DX2 analytically  !
 ! D108  D(10,12,18,33)       -128.7367         calculate D2E/DX2 analytically  !
 ! D109  D(15,12,18,32)        -66.7554         calculate D2E/DX2 analytically  !
 ! D110  D(15,12,18,33)        110.8576         calculate D2E/DX2 analytically  !
 ! D111  D(19,12,18,32)        173.0532         calculate D2E/DX2 analytically  !
 ! D112  D(19,12,18,33)         -9.3338         calculate D2E/DX2 analytically  !
 ! D113  D(11,15,21,42)         57.2207         calculate D2E/DX2 analytically  !
 ! D114  D(11,15,21,43)       -122.8419         calculate D2E/DX2 analytically  !
 ! D115  D(12,15,21,42)        -67.0289         calculate D2E/DX2 analytically  !
 ! D116  D(12,15,21,43)        112.9085         calculate D2E/DX2 analytically  !
 ! D117  D(20,15,21,42)        174.7809         calculate D2E/DX2 analytically  !
 ! D118  D(20,15,21,43)         -5.2817         calculate D2E/DX2 analytically  !
 ! D119  D(12,18,32,36)        177.736          calculate D2E/DX2 analytically  !
 ! D120  D(12,18,32,37)         -2.1468         calculate D2E/DX2 analytically  !
 ! D121  D(33,18,32,36)          0.0955         calculate D2E/DX2 analytically  !
 ! D122  D(33,18,32,37)       -179.7874         calculate D2E/DX2 analytically  !
 ! D123  D(12,18,33,35)       -177.6223         calculate D2E/DX2 analytically  !
 ! D124  D(12,18,33,41)          1.7783         calculate D2E/DX2 analytically  !
 ! D125  D(32,18,33,35)          0.0267         calculate D2E/DX2 analytically  !
 ! D126  D(32,18,33,41)        179.4273         calculate D2E/DX2 analytically  !
 ! D127  D(15,21,42,46)       -179.5219         calculate D2E/DX2 analytically  !
 ! D128  D(15,21,42,47)          0.7215         calculate D2E/DX2 analytically  !
 ! D129  D(43,21,42,46)          0.5397         calculate D2E/DX2 analytically  !
 ! D130  D(43,21,42,47)       -179.2169         calculate D2E/DX2 analytically  !
 ! D131  D(15,21,43,45)        179.7033         calculate D2E/DX2 analytically  !
 ! D132  D(15,21,43,51)         -0.4364         calculate D2E/DX2 analytically  !
 ! D133  D(42,21,43,45)         -0.3583         calculate D2E/DX2 analytically  !
 ! D134  D(42,21,43,51)        179.502          calculate D2E/DX2 analytically  !
 ! D135  D(5,22,26,24)           0.9475         calculate D2E/DX2 analytically  !
 ! D136  D(5,22,26,28)        -178.4961         calculate D2E/DX2 analytically  !
 ! D137  D(27,22,26,24)        178.0162         calculate D2E/DX2 analytically  !
 ! D138  D(27,22,26,28)         -1.4274         calculate D2E/DX2 analytically  !
 ! D139  D(5,23,25,24)           0.1267         calculate D2E/DX2 analytically  !
 ! D140  D(5,23,25,30)         179.8205         calculate D2E/DX2 analytically  !
 ! D141  D(31,23,25,24)       -179.0005         calculate D2E/DX2 analytically  !
 ! D142  D(31,23,25,30)          0.6932         calculate D2E/DX2 analytically  !
 ! D143  D(26,24,25,23)         -0.81           calculate D2E/DX2 analytically  !
 ! D144  D(26,24,25,30)        179.4973         calculate D2E/DX2 analytically  !
 ! D145  D(29,24,25,23)        179.3114         calculate D2E/DX2 analytically  !
 ! D146  D(29,24,25,30)         -0.3813         calculate D2E/DX2 analytically  !
 ! D147  D(25,24,26,22)          0.2777         calculate D2E/DX2 analytically  !
 ! D148  D(25,24,26,28)        179.7189         calculate D2E/DX2 analytically  !
 ! D149  D(29,24,26,22)       -179.8436         calculate D2E/DX2 analytically  !
 ! D150  D(29,24,26,28)         -0.4024         calculate D2E/DX2 analytically  !
 ! D151  D(18,32,36,34)         -0.1771         calculate D2E/DX2 analytically  !
 ! D152  D(18,32,36,38)       -179.9494         calculate D2E/DX2 analytically  !
 ! D153  D(37,32,36,34)        179.7056         calculate D2E/DX2 analytically  !
 ! D154  D(37,32,36,38)         -0.0666         calculate D2E/DX2 analytically  !
 ! D155  D(18,33,35,34)         -0.0678         calculate D2E/DX2 analytically  !
 ! D156  D(18,33,35,40)        179.8747         calculate D2E/DX2 analytically  !
 ! D157  D(41,33,35,34)       -179.4657         calculate D2E/DX2 analytically  !
 ! D158  D(41,33,35,40)          0.4768         calculate D2E/DX2 analytically  !
 ! D159  D(36,34,35,33)         -0.0133         calculate D2E/DX2 analytically  !
 ! D160  D(36,34,35,40)       -179.9555         calculate D2E/DX2 analytically  !
 ! D161  D(39,34,35,33)        179.8796         calculate D2E/DX2 analytically  !
 ! D162  D(39,34,35,40)         -0.0626         calculate D2E/DX2 analytically  !
 ! D163  D(35,34,36,32)          0.1353         calculate D2E/DX2 analytically  !
 ! D164  D(35,34,36,38)        179.907          calculate D2E/DX2 analytically  !
 ! D165  D(39,34,36,32)       -179.7576         calculate D2E/DX2 analytically  !
 ! D166  D(39,34,36,38)          0.0141         calculate D2E/DX2 analytically  !
 ! D167  D(21,42,46,44)         -0.3061         calculate D2E/DX2 analytically  !
 ! D168  D(21,42,46,48)        179.8029         calculate D2E/DX2 analytically  !
 ! D169  D(47,42,46,44)        179.4529         calculate D2E/DX2 analytically  !
 ! D170  D(47,42,46,48)         -0.4381         calculate D2E/DX2 analytically  !
 ! D171  D(21,43,45,44)         -0.0565         calculate D2E/DX2 analytically  !
 ! D172  D(21,43,45,50)       -179.8489         calculate D2E/DX2 analytically  !
 ! D173  D(51,43,45,44)       -179.9158         calculate D2E/DX2 analytically  !
 ! D174  D(51,43,45,50)          0.2918         calculate D2E/DX2 analytically  !
 ! D175  D(46,44,45,43)          0.2956         calculate D2E/DX2 analytically  !
 ! D176  D(46,44,45,50)       -179.9128         calculate D2E/DX2 analytically  !
 ! D177  D(49,44,45,43)       -179.8106         calculate D2E/DX2 analytically  !
 ! D178  D(49,44,45,50)         -0.019          calculate D2E/DX2 analytically  !
 ! D179  D(45,44,46,42)         -0.1154         calculate D2E/DX2 analytically  !
 ! D180  D(45,44,46,48)        179.7752         calculate D2E/DX2 analytically  !
 ! D181  D(49,44,46,42)        179.9907         calculate D2E/DX2 analytically  !
 ! D182  D(49,44,46,48)         -0.1187         calculate D2E/DX2 analytically  !
 ! D183  D(8,52,53,55)          60.9788         calculate D2E/DX2 analytically  !
 ! D184  D(8,52,53,56)        -178.3571         calculate D2E/DX2 analytically  !
 ! D185  D(8,52,53,57)         -57.0099         calculate D2E/DX2 analytically  !
 ! D186  D(9,52,53,55)        -114.4658         calculate D2E/DX2 analytically  !
 ! D187  D(9,52,53,56)           6.1984         calculate D2E/DX2 analytically  !
 ! D188  D(9,52,53,57)         127.5456         calculate D2E/DX2 analytically  !
 ! D189  D(10,52,53,55)        -25.1536         calculate D2E/DX2 analytically  !
 ! D190  D(10,52,53,56)         95.5105         calculate D2E/DX2 analytically  !
 ! D191  D(10,52,53,57)       -143.1423         calculate D2E/DX2 analytically  !
 ! D192  D(54,52,53,55)        159.0246         calculate D2E/DX2 analytically  !
 ! D193  D(54,52,53,56)        -80.3112         calculate D2E/DX2 analytically  !
 ! D194  D(54,52,53,57)         41.0359         calculate D2E/DX2 analytically  !
 ! D195  D(8,52,54,58)        -106.5833         calculate D2E/DX2 analytically  !
 ! D196  D(8,52,54,59)          12.1162         calculate D2E/DX2 analytically  !
 ! D197  D(8,52,54,60)         134.55           calculate D2E/DX2 analytically  !
 ! D198  D(9,52,54,58)          65.4133         calculate D2E/DX2 analytically  !
 ! D199  D(9,52,54,59)        -175.8873         calculate D2E/DX2 analytically  !
 ! D200  D(9,52,54,60)         -53.4534         calculate D2E/DX2 analytically  !
 ! D201  D(11,52,54,58)        -19.1213         calculate D2E/DX2 analytically  !
 ! D202  D(11,52,54,59)         99.5781         calculate D2E/DX2 analytically  !
 ! D203  D(11,52,54,60)       -137.9881         calculate D2E/DX2 analytically  !
 ! D204  D(53,52,54,58)        155.8205         calculate D2E/DX2 analytically  !
 ! D205  D(53,52,54,59)        -85.4801         calculate D2E/DX2 analytically  !
 ! D206  D(53,52,54,60)         36.9538         calculate D2E/DX2 analytically  !
 ! D207  D(52,53,55,91)        145.0013         calculate D2E/DX2 analytically  !
 ! D208  D(52,53,55,92)        -33.8202         calculate D2E/DX2 analytically  !
 ! D209  D(56,53,55,91)         13.2653         calculate D2E/DX2 analytically  !
 ! D210  D(56,53,55,92)       -165.5562         calculate D2E/DX2 analytically  !
 ! D211  D(57,53,55,91)        -91.4441         calculate D2E/DX2 analytically  !
 ! D212  D(57,53,55,92)         89.7344         calculate D2E/DX2 analytically  !
 ! D213  D(52,53,56,101)       162.9944         calculate D2E/DX2 analytically  !
 ! D214  D(52,53,56,102)       -19.3134         calculate D2E/DX2 analytically  !
 ! D215  D(55,53,56,101)       -69.8843         calculate D2E/DX2 analytically  !
 ! D216  D(55,53,56,102)       107.8079         calculate D2E/DX2 analytically  !
 ! D217  D(57,53,56,101)        36.192          calculate D2E/DX2 analytically  !
 ! D218  D(57,53,56,102)      -146.1159         calculate D2E/DX2 analytically  !
 ! D219  D(52,53,57,61)        -72.3065         calculate D2E/DX2 analytically  !
 ! D220  D(52,53,57,62)         98.6833         calculate D2E/DX2 analytically  !
 ! D221  D(55,53,57,61)        163.4954         calculate D2E/DX2 analytically  !
 ! D222  D(55,53,57,62)        -25.5147         calculate D2E/DX2 analytically  !
 ! D223  D(56,53,57,61)         59.6441         calculate D2E/DX2 analytically  !
 ! D224  D(56,53,57,62)       -129.3661         calculate D2E/DX2 analytically  !
 ! D225  D(52,54,58,111)       109.0267         calculate D2E/DX2 analytically  !
 ! D226  D(52,54,58,112)       -58.2123         calculate D2E/DX2 analytically  !
 ! D227  D(59,54,58,111)       -22.9966         calculate D2E/DX2 analytically  !
 ! D228  D(59,54,58,112)       169.7645         calculate D2E/DX2 analytically  !
 ! D229  D(60,54,58,111)      -125.7726         calculate D2E/DX2 analytically  !
 ! D230  D(60,54,58,112)        66.9885         calculate D2E/DX2 analytically  !
 ! D231  D(52,54,59,121)      -174.8716         calculate D2E/DX2 analytically  !
 ! D232  D(52,54,59,122)         8.9715         calculate D2E/DX2 analytically  !
 ! D233  D(58,54,59,121)       -53.4217         calculate D2E/DX2 analytically  !
 ! D234  D(58,54,59,122)       130.4214         calculate D2E/DX2 analytically  !
 ! D235  D(60,54,59,121)        55.0979         calculate D2E/DX2 analytically  !
 ! D236  D(60,54,59,122)      -121.059          calculate D2E/DX2 analytically  !
 ! D237  D(52,54,60,63)        -72.1843         calculate D2E/DX2 analytically  !
 ! D238  D(52,54,60,64)        103.7351         calculate D2E/DX2 analytically  !
 ! D239  D(58,54,60,63)        167.9319         calculate D2E/DX2 analytically  !
 ! D240  D(58,54,60,64)        -16.1487         calculate D2E/DX2 analytically  !
 ! D241  D(59,54,60,63)         62.7847         calculate D2E/DX2 analytically  !
 ! D242  D(59,54,60,64)       -121.2959         calculate D2E/DX2 analytically  !
 ! D243  D(53,55,91,93)       -179.5999         calculate D2E/DX2 analytically  !
 ! D244  D(53,55,91,94)         -0.0169         calculate D2E/DX2 analytically  !
 ! D245  D(92,55,91,93)         -0.7893         calculate D2E/DX2 analytically  !
 ! D246  D(92,55,91,94)        178.7936         calculate D2E/DX2 analytically  !
 ! D247  D(53,55,92,95)        179.9705         calculate D2E/DX2 analytically  !
 ! D248  D(53,55,92,96)          1.1246         calculate D2E/DX2 analytically  !
 ! D249  D(91,55,92,95)          1.0673         calculate D2E/DX2 analytically  !
 ! D250  D(91,55,92,96)       -177.7786         calculate D2E/DX2 analytically  !
 ! D251  D(53,56,101,103)      177.8454         calculate D2E/DX2 analytically  !
 ! D252  D(53,56,101,104)       -3.2185         calculate D2E/DX2 analytically  !
 ! D253  D(102,56,101,103)       0.1072         calculate D2E/DX2 analytically  !
 ! D254  D(102,56,101,104)     179.0433         calculate D2E/DX2 analytically  !
 ! D255  D(53,56,102,105)     -178.2028         calculate D2E/DX2 analytically  !
 ! D256  D(53,56,102,106)        3.4118         calculate D2E/DX2 analytically  !
 ! D257  D(101,56,102,105)      -0.4545         calculate D2E/DX2 analytically  !
 ! D258  D(101,56,102,106)    -178.8398         calculate D2E/DX2 analytically  !
 ! D259  D(53,57,61,63)        -11.3676         calculate D2E/DX2 analytically  !
 ! D260  D(53,57,61,65)        169.9885         calculate D2E/DX2 analytically  !
 ! D261  D(62,57,61,63)        177.723          calculate D2E/DX2 analytically  !
 ! D262  D(62,57,61,65)         -0.9208         calculate D2E/DX2 analytically  !
 ! D263  D(53,57,62,66)       -171.5173         calculate D2E/DX2 analytically  !
 ! D264  D(53,57,62,67)          8.9242         calculate D2E/DX2 analytically  !
 ! D265  D(61,57,62,66)         -0.3456         calculate D2E/DX2 analytically  !
 ! D266  D(61,57,62,67)       -179.9041         calculate D2E/DX2 analytically  !
 ! D267  D(54,58,111,113)     -168.328          calculate D2E/DX2 analytically  !
 ! D268  D(54,58,111,114)       11.0028         calculate D2E/DX2 analytically  !
 ! D269  D(112,58,111,113)      -0.931          calculate D2E/DX2 analytically  !
 ! D270  D(112,58,111,114)     178.3998         calculate D2E/DX2 analytically  !
 ! D271  D(54,58,112,115)      169.4368         calculate D2E/DX2 analytically  !
 ! D272  D(54,58,112,116)       -7.6384         calculate D2E/DX2 analytically  !
 ! D273  D(111,58,112,115)       1.7281         calculate D2E/DX2 analytically  !
 ! D274  D(111,58,112,116)    -175.3471         calculate D2E/DX2 analytically  !
 ! D275  D(54,59,121,123)     -177.5055         calculate D2E/DX2 analytically  !
 ! D276  D(54,59,121,124)        2.198          calculate D2E/DX2 analytically  !
 ! D277  D(122,59,121,123)      -1.3461         calculate D2E/DX2 analytically  !
 ! D278  D(122,59,121,124)     178.3574         calculate D2E/DX2 analytically  !
 ! D279  D(54,59,122,125)      177.1841         calculate D2E/DX2 analytically  !
 ! D280  D(54,59,122,126)       -0.4526         calculate D2E/DX2 analytically  !
 ! D281  D(121,59,122,125)       0.9166         calculate D2E/DX2 analytically  !
 ! D282  D(121,59,122,126)    -176.7201         calculate D2E/DX2 analytically  !
 ! D283  D(54,60,63,61)         -8.0016         calculate D2E/DX2 analytically  !
 ! D284  D(54,60,63,68)        174.4995         calculate D2E/DX2 analytically  !
 ! D285  D(64,60,63,61)        176.0243         calculate D2E/DX2 analytically  !
 ! D286  D(64,60,63,68)         -1.4747         calculate D2E/DX2 analytically  !
 ! D287  D(54,60,64,69)       -173.7741         calculate D2E/DX2 analytically  !
 ! D288  D(54,60,64,70)          7.1301         calculate D2E/DX2 analytically  !
 ! D289  D(63,60,64,69)          2.1701         calculate D2E/DX2 analytically  !
 ! D290  D(63,60,64,70)       -176.9258         calculate D2E/DX2 analytically  !
 ! D291  D(57,61,63,60)         73.528          calculate D2E/DX2 analytically  !
 ! D292  D(57,61,63,68)       -108.9177         calculate D2E/DX2 analytically  !
 ! D293  D(65,61,63,60)       -107.7987         calculate D2E/DX2 analytically  !
 ! D294  D(65,61,63,68)         69.7555         calculate D2E/DX2 analytically  !
 ! D295  D(57,61,65,71)          1.6742         calculate D2E/DX2 analytically  !
 ! D296  D(57,61,65,72)       -177.3372         calculate D2E/DX2 analytically  !
 ! D297  D(63,61,65,71)       -177.0434         calculate D2E/DX2 analytically  !
 ! D298  D(63,61,65,72)          3.9452         calculate D2E/DX2 analytically  !
 ! D299  D(57,62,66,71)          0.8603         calculate D2E/DX2 analytically  !
 ! D300  D(57,62,66,73)       -179.1692         calculate D2E/DX2 analytically  !
 ! D301  D(67,62,66,71)       -179.5806         calculate D2E/DX2 analytically  !
 ! D302  D(67,62,66,73)          0.3899         calculate D2E/DX2 analytically  !
 ! D303  D(60,63,68,74)         -0.4995         calculate D2E/DX2 analytically  !
 ! D304  D(60,63,68,75)       -179.8216         calculate D2E/DX2 analytically  !
 ! D305  D(61,63,68,74)       -178.1303         calculate D2E/DX2 analytically  !
 ! D306  D(61,63,68,75)          2.5476         calculate D2E/DX2 analytically  !
 ! D307  D(60,64,69,74)         -0.8055         calculate D2E/DX2 analytically  !
 ! D308  D(60,64,69,76)        179.9153         calculate D2E/DX2 analytically  !
 ! D309  D(70,64,69,74)        178.2995         calculate D2E/DX2 analytically  !
 ! D310  D(70,64,69,76)         -0.9797         calculate D2E/DX2 analytically  !
 ! D311  D(61,65,71,66)         -1.1664         calculate D2E/DX2 analytically  !
 ! D312  D(61,65,71,77)        179.4616         calculate D2E/DX2 analytically  !
 ! D313  D(72,65,71,66)        177.8886         calculate D2E/DX2 analytically  !
 ! D314  D(72,65,71,77)         -1.4835         calculate D2E/DX2 analytically  !
 ! D315  D(61,65,72,78)       -179.664          calculate D2E/DX2 analytically  !
 ! D316  D(61,65,72,79)          1.3146         calculate D2E/DX2 analytically  !
 ! D317  D(71,65,72,78)          1.3065         calculate D2E/DX2 analytically  !
 ! D318  D(71,65,72,79)       -177.7149         calculate D2E/DX2 analytically  !
 ! D319  D(62,66,71,65)         -0.0862         calculate D2E/DX2 analytically  !
 ! D320  D(62,66,71,77)        179.2758         calculate D2E/DX2 analytically  !
 ! D321  D(73,66,71,65)        179.9429         calculate D2E/DX2 analytically  !
 ! D322  D(73,66,71,77)         -0.695          calculate D2E/DX2 analytically  !
 ! D323  D(63,68,74,69)          1.8424         calculate D2E/DX2 analytically  !
 ! D324  D(63,68,74,80)       -178.8465         calculate D2E/DX2 analytically  !
 ! D325  D(75,68,74,69)       -178.8045         calculate D2E/DX2 analytically  !
 ! D326  D(75,68,74,80)          0.5066         calculate D2E/DX2 analytically  !
 ! D327  D(63,68,75,81)        179.1506         calculate D2E/DX2 analytically  !
 ! D328  D(63,68,75,82)         -0.1264         calculate D2E/DX2 analytically  !
 ! D329  D(74,68,75,81)         -0.1841         calculate D2E/DX2 analytically  !
 ! D330  D(74,68,75,82)       -179.4611         calculate D2E/DX2 analytically  !
 ! D331  D(64,69,74,68)         -1.2036         calculate D2E/DX2 analytically  !
 ! D332  D(64,69,74,80)        179.4958         calculate D2E/DX2 analytically  !
 ! D333  D(76,69,74,68)        178.0836         calculate D2E/DX2 analytically  !
 ! D334  D(76,69,74,80)         -1.2169         calculate D2E/DX2 analytically  !
 ! D335  D(65,71,77,83)          0.6325         calculate D2E/DX2 analytically  !
 ! D336  D(65,71,77,84)       -179.6351         calculate D2E/DX2 analytically  !
 ! D337  D(66,71,77,83)       -178.7237         calculate D2E/DX2 analytically  !
 ! D338  D(66,71,77,84)          1.0087         calculate D2E/DX2 analytically  !
 ! D339  D(65,72,78,83)         -0.2522         calculate D2E/DX2 analytically  !
 ! D340  D(65,72,78,85)       -179.6276         calculate D2E/DX2 analytically  !
 ! D341  D(79,72,78,83)        178.7653         calculate D2E/DX2 analytically  !
 ! D342  D(79,72,78,85)         -0.6101         calculate D2E/DX2 analytically  !
 ! D343  D(68,74,80,86)         -0.4696         calculate D2E/DX2 analytically  !
 ! D344  D(68,74,80,87)        179.7412         calculate D2E/DX2 analytically  !
 ! D345  D(69,74,80,86)        178.8243         calculate D2E/DX2 analytically  !
 ! D346  D(69,74,80,87)         -0.9648         calculate D2E/DX2 analytically  !
 ! D347  D(68,75,81,86)         -0.1899         calculate D2E/DX2 analytically  !
 ! D348  D(68,75,81,88)       -179.803          calculate D2E/DX2 analytically  !
 ! D349  D(82,75,81,86)        179.0865         calculate D2E/DX2 analytically  !
 ! D350  D(82,75,81,88)         -0.5266         calculate D2E/DX2 analytically  !
 ! D351  D(71,77,83,78)          0.4516         calculate D2E/DX2 analytically  !
 ! D352  D(71,77,83,89)        179.8934         calculate D2E/DX2 analytically  !
 ! D353  D(84,77,83,78)       -179.2754         calculate D2E/DX2 analytically  !
 ! D354  D(84,77,83,89)          0.1664         calculate D2E/DX2 analytically  !
 ! D355  D(72,78,83,77)         -0.6504         calculate D2E/DX2 analytically  !
 ! D356  D(72,78,83,89)        179.9052         calculate D2E/DX2 analytically  !
 ! D357  D(85,78,83,77)        178.7253         calculate D2E/DX2 analytically  !
 ! D358  D(85,78,83,89)         -0.7191         calculate D2E/DX2 analytically  !
 ! D359  D(74,80,86,81)          0.0921         calculate D2E/DX2 analytically  !
 ! D360  D(74,80,86,90)       -179.8889         calculate D2E/DX2 analytically  !
 ! D361  D(87,80,86,81)        179.8768         calculate D2E/DX2 analytically  !
 ! D362  D(87,80,86,90)         -0.1041         calculate D2E/DX2 analytically  !
 ! D363  D(75,81,86,80)          0.2397         calculate D2E/DX2 analytically  !
 ! D364  D(75,81,86,90)       -179.7793         calculate D2E/DX2 analytically  !
 ! D365  D(88,81,86,80)        179.8531         calculate D2E/DX2 analytically  !
 ! D366  D(88,81,86,90)         -0.1658         calculate D2E/DX2 analytically  !
 ! D367  D(55,91,93,97)          0.0342         calculate D2E/DX2 analytically  !
 ! D368  D(55,91,93,98)        179.9531         calculate D2E/DX2 analytically  !
 ! D369  D(94,91,93,97)       -179.5564         calculate D2E/DX2 analytically  !
 ! D370  D(94,91,93,98)          0.3625         calculate D2E/DX2 analytically  !
 ! D371  D(55,92,95,97)         -0.5858         calculate D2E/DX2 analytically  !
 ! D372  D(55,92,95,99)       -179.9152         calculate D2E/DX2 analytically  !
 ! D373  D(96,92,95,97)        178.2654         calculate D2E/DX2 analytically  !
 ! D374  D(96,92,95,99)         -1.064          calculate D2E/DX2 analytically  !
 ! D375  D(91,93,97,95)          0.4681         calculate D2E/DX2 analytically  !
 ! D376  D(91,93,97,100)       179.9849         calculate D2E/DX2 analytically  !
 ! D377  D(98,93,97,95)       -179.4503         calculate D2E/DX2 analytically  !
 ! D378  D(98,93,97,100)         0.0666         calculate D2E/DX2 analytically  !
 ! D379  D(92,95,97,93)         -0.1958         calculate D2E/DX2 analytically  !
 ! D380  D(92,95,97,100)      -179.7124         calculate D2E/DX2 analytically  !
 ! D381  D(99,95,97,93)        179.1257         calculate D2E/DX2 analytically  !
 ! D382  D(99,95,97,100)        -0.3909         calculate D2E/DX2 analytically  !
 ! D383  D(56,101,103,107)       0.2768         calculate D2E/DX2 analytically  !
 ! D384  D(56,101,103,108)     179.0716         calculate D2E/DX2 analytically  !
 ! D385  D(104,101,103,107)   -178.6647         calculate D2E/DX2 analytically  !
 ! D386  D(104,101,103,108)      0.1301         calculate D2E/DX2 analytically  !
 ! D387  D(56,102,105,107)       0.42           calculate D2E/DX2 analytically  !
 ! D388  D(56,102,105,109)    -179.3377         calculate D2E/DX2 analytically  !
 ! D389  D(106,102,105,107)    178.7787         calculate D2E/DX2 analytically  !
 ! D390  D(106,102,105,109)     -0.979          calculate D2E/DX2 analytically  !
 ! D391  D(101,103,107,105)     -0.3152         calculate D2E/DX2 analytically  !
 ! D392  D(101,103,107,110)    179.2864         calculate D2E/DX2 analytically  !
 ! D393  D(108,103,107,105)   -179.1036         calculate D2E/DX2 analytically  !
 ! D394  D(108,103,107,110)      0.498          calculate D2E/DX2 analytically  !
 ! D395  D(102,105,107,103)     -0.0292         calculate D2E/DX2 analytically  !
 ! D396  D(102,105,107,110)   -179.6306         calculate D2E/DX2 analytically  !
 ! D397  D(109,105,107,103)    179.7276         calculate D2E/DX2 analytically  !
 ! D398  D(109,105,107,110)      0.1262         calculate D2E/DX2 analytically  !
 ! D399  D(58,111,113,117)      -0.2113         calculate D2E/DX2 analytically  !
 ! D400  D(58,111,113,118)     179.4874         calculate D2E/DX2 analytically  !
 ! D401  D(114,111,113,117)   -179.55           calculate D2E/DX2 analytically  !
 ! D402  D(114,111,113,118)      0.1487         calculate D2E/DX2 analytically  !
 ! D403  D(58,112,115,117)      -1.3814         calculate D2E/DX2 analytically  !
 ! D404  D(58,112,115,119)     179.9757         calculate D2E/DX2 analytically  !
 ! D405  D(116,112,115,117)    175.6986         calculate D2E/DX2 analytically  !
 ! D406  D(116,112,115,119)     -2.9443         calculate D2E/DX2 analytically  !
 ! D407  D(111,113,117,115)      0.5918         calculate D2E/DX2 analytically  !
 ! D408  D(111,113,117,120)    179.991          calculate D2E/DX2 analytically  !
 ! D409  D(118,113,117,115)   -179.1045         calculate D2E/DX2 analytically  !
 ! D410  D(118,113,117,120)      0.2948         calculate D2E/DX2 analytically  !
 ! D411  D(112,115,117,113)      0.1952         calculate D2E/DX2 analytically  !
 ! D412  D(112,115,117,120)   -179.2047         calculate D2E/DX2 analytically  !
 ! D413  D(119,115,117,113)    178.8294         calculate D2E/DX2 analytically  !
 ! D414  D(119,115,117,120)     -0.5705         calculate D2E/DX2 analytically  !
 ! D415  D(59,121,123,127)       0.8945         calculate D2E/DX2 analytically  !
 ! D416  D(59,121,123,128)     179.8878         calculate D2E/DX2 analytically  !
 ! D417  D(124,121,123,127)   -178.81           calculate D2E/DX2 analytically  !
 ! D418  D(124,121,123,128)      0.1833         calculate D2E/DX2 analytically  !
 ! D419  D(59,122,125,127)      -0.0327         calculate D2E/DX2 analytically  !
 ! D420  D(59,122,125,129)    -178.9702         calculate D2E/DX2 analytically  !
 ! D421  D(126,122,125,127)    177.5358         calculate D2E/DX2 analytically  !
 ! D422  D(126,122,125,129)     -1.4016         calculate D2E/DX2 analytically  !
 ! D423  D(121,123,127,125)      0.0051         calculate D2E/DX2 analytically  !
 ! D424  D(121,123,127,130)    179.0412         calculate D2E/DX2 analytically  !
[...]
 Alpha virt. eigenvalues --    1.23203   1.23225   1.24064   1.24541   1.24695
 Alpha virt. eigenvalues --    1.25070   1.25448   1.25781   1.26000   1.26222
 Alpha virt. eigenvalues --    1.26479   1.26566   1.26991   1.27510   1.27880
 Alpha virt. eigenvalues --    1.28443   1.28607   1.28670   1.29575   1.29828
 Alpha virt. eigenvalues --    1.29985   1.31169   1.31317   1.31450   1.31918
 Alpha virt. eigenvalues --    1.32050   1.32554   1.32611   1.32985   1.33345
 Alpha virt. eigenvalues --    1.33607   1.34083   1.34401   1.34782   1.34928
 Alpha virt. eigenvalues --    1.35185   1.35521   1.35650   1.36039   1.36256
 Alpha virt. eigenvalues --    1.36763   1.37417   1.37707   1.37978   1.38301
 Alpha virt. eigenvalues --    1.38971   1.39311   1.39810   1.40151   1.40987
 Alpha virt. eigenvalues --    1.41827   1.42189   1.42444   1.42993   1.43592
 Alpha virt. eigenvalues --    1.44081   1.44588   1.45154   1.45581   1.46221
 Alpha virt. eigenvalues --    1.47137   1.47395   1.47580   1.47887   1.48418
 Alpha virt. eigenvalues --    1.48809   1.49192   1.49630   1.49813   1.50344
 Alpha virt. eigenvalues --    1.50708   1.50889   1.51262   1.51587   1.51722
 Alpha virt. eigenvalues --    1.52334   1.52784   1.53157   1.53343   1.53574
 Alpha virt. eigenvalues --    1.53708   1.53886   1.54084   1.54703   1.54881
 Alpha virt. eigenvalues --    1.55158   1.55264   1.55471   1.55555   1.55808
 Alpha virt. eigenvalues --    1.55954   1.56264   1.56557   1.56674   1.56738
 Alpha virt. eigenvalues --    1.56797   1.57144   1.57481   1.57551   1.57701
 Alpha virt. eigenvalues --    1.57819   1.57996   1.58078   1.58359   1.58399
 Alpha virt. eigenvalues --    1.58564   1.58641   1.58707   1.58892   1.59193
 Alpha virt. eigenvalues --    1.59344   1.59573   1.59660   1.59786   1.60079
 Alpha virt. eigenvalues --    1.60476   1.60828   1.61034   1.61269   1.61687
 Alpha virt. eigenvalues --    1.61848   1.62621   1.63215   1.63561   1.63705
 Alpha virt. eigenvalues --    1.64299   1.64818   1.65440   1.65613   1.66595
 Alpha virt. eigenvalues --    1.67177   1.67949   1.68326   1.68895   1.70463
 Alpha virt. eigenvalues --    1.70735   1.71079   1.72567   1.72821   1.73658
 Alpha virt. eigenvalues --    1.73953   1.74388   1.76127   1.76856   1.77795
 Alpha virt. eigenvalues --    1.77909   1.78979   1.79825   1.83166   1.83489
 Alpha virt. eigenvalues --    1.85015   1.85173   1.85876   1.86747   1.87100
 Alpha virt. eigenvalues --    1.87459   1.87777   1.88707   1.89163   1.89306
 Alpha virt. eigenvalues --    1.89636   1.90092   1.90411   1.90517   1.91148
 Alpha virt. eigenvalues --    1.91349   1.91724   1.91812   1.92486   1.92842
 Alpha virt. eigenvalues --    1.93075   1.93287   1.93684   1.93856   1.94046
 Alpha virt. eigenvalues --    1.94448   1.94931   1.95582   1.95857   1.96216
 Alpha virt. eigenvalues --    1.96542   1.97524   1.97559   1.98199   1.98405
 Alpha virt. eigenvalues --    1.99071   1.99209   1.99316   1.99794   2.00372
 Alpha virt. eigenvalues --    2.00635   2.00704   2.01052   2.01230   2.01945
 Alpha virt. eigenvalues --    2.02169   2.02276   2.02662   2.03088   2.03457
 Alpha virt. eigenvalues --    2.03506   2.04041   2.04684   2.05111   2.05250
 Alpha virt. eigenvalues --    2.05888   2.06158   2.06669   2.07009   2.07279
 Alpha virt. eigenvalues --    2.07931   2.08180   2.08361   2.08635   2.08952
 Alpha virt. eigenvalues --    2.09084   2.09871   2.10075   2.10805   2.11162
 Alpha virt. eigenvalues --    2.11412   2.12217   2.12433   2.12852   2.13065
 Alpha virt. eigenvalues --    2.13584   2.14016   2.14693   2.14910   2.15457
 Alpha virt. eigenvalues --    2.15722   2.15931   2.16076   2.16628   2.17182
 Alpha virt. eigenvalues --    2.17799   2.18590   2.18966   2.19498   2.19962
 Alpha virt. eigenvalues --    2.20182   2.20745   2.21019   2.21694   2.21894
 Alpha virt. eigenvalues --    2.22154   2.22292   2.22653   2.23297   2.23339
 Alpha virt. eigenvalues --    2.23603   2.23730   2.23911   2.24049   2.24252
 Alpha virt. eigenvalues --    2.24424   2.24559   2.24682   2.24909   2.25160
 Alpha virt. eigenvalues --    2.25411   2.25852   2.25971   2.26002   2.26045
 Alpha virt. eigenvalues --    2.26233   2.26383   2.26670   2.26991   2.27352
 Alpha virt. eigenvalues --    2.27496   2.27575   2.27821   2.28131   2.28422
 Alpha virt. eigenvalues --    2.28805   2.28928   2.29342   2.29645   2.29789
 Alpha virt. eigenvalues --    2.30133   2.30503   2.30887   2.31150   2.31435
 Alpha virt. eigenvalues --    2.31926   2.32604   2.33853   2.34168   2.35006
 Alpha virt. eigenvalues --    2.36129   2.36322   2.36707   2.37176   2.37437
 Alpha virt. eigenvalues --    2.38052   2.38364   2.38473   2.38638   2.38857
 Alpha virt. eigenvalues --    2.39409   2.39656   2.39844   2.39939   2.39965
 Alpha virt. eigenvalues --    2.40061   2.40210   2.40335   2.40576   2.40751
 Alpha virt. eigenvalues --    2.40940   2.41312   2.41672   2.41709   2.42171
 Alpha virt. eigenvalues --    2.42634   2.42876   2.43065   2.43204   2.43620
 Alpha virt. eigenvalues --    2.43883   2.44073   2.44257   2.44942   2.45254
 Alpha virt. eigenvalues --    2.46652   2.48805   2.51369   2.52390   2.53727
 Alpha virt. eigenvalues --    2.55367   2.55827   2.56664   2.58279   2.59302
 Alpha virt. eigenvalues --    2.61796   2.63596   2.64858   2.65297   2.65667
 Alpha virt. eigenvalues --    2.66509   2.67151   2.67258   2.67618   2.68056
 Alpha virt. eigenvalues --    2.68142   2.68508   2.68899   2.69220   2.69292
 Alpha virt. eigenvalues --    2.70078   2.70199   2.70309   2.70748   2.71293
 Alpha virt. eigenvalues --    2.71548   2.72378   2.73054   2.73158   2.73286
 Alpha virt. eigenvalues --    2.73520   2.73728   2.74015   2.74192   2.74289
 Alpha virt. eigenvalues --    2.74479   2.74621   2.74688   2.74998   2.75477
 Alpha virt. eigenvalues --    2.76262   2.76457   2.77069   2.77434   2.77885
 Alpha virt. eigenvalues --    2.78253   2.78626   2.78801   2.80055   2.80549
 Alpha virt. eigenvalues --    2.81049   2.81294   2.81801   2.81850   2.82176
 Alpha virt. eigenvalues --    2.82763   2.82944   2.83251   2.84384   2.84632
 Alpha virt. eigenvalues --    2.84937   2.85054   2.85403   2.85875   2.86204
 Alpha virt. eigenvalues --    2.86335   2.86797   2.86887   2.87252   2.87288
 Alpha virt. eigenvalues --    2.87584   2.88474   2.88700   2.89027   2.89418
 Alpha virt. eigenvalues --    2.90046   2.90480   2.90915   2.91617   2.91819
 Alpha virt. eigenvalues --    2.92420   2.93269   2.93672   2.94560   2.95190
 Alpha virt. eigenvalues --    2.96267   2.97919   2.99590   3.00974   3.01438
 Alpha virt. eigenvalues --    3.03129   3.03495   3.06580   3.06949   3.07636
 Alpha virt. eigenvalues --    3.08892   3.10063   3.14299   3.14798   3.15005
 Alpha virt. eigenvalues --    3.16376   3.17917   3.18163   3.18987   3.19512
 Alpha virt. eigenvalues --    3.22377   3.23403   3.26719   3.43984   3.47285
 Alpha virt. eigenvalues --    3.48501   3.49027   3.50365   3.50554   3.51195
 Alpha virt. eigenvalues --    3.51913   3.52117   3.56205   3.59027  34.86606
 Alpha virt. eigenvalues --   35.13201  35.30862  46.40086
          Condensed to atoms (all electrons):
 Mulliken charges:
               1
     1  H    0.194898
     2  C   -0.559201
     3  C    0.369298
     4  O   -0.543966
     5  C    0.068696
     6  H    0.182636
     7  H    0.200918
     8  H   -0.182783
     9  H   -0.011562
    10  N   -0.852277
    11  N   -0.830916
    12  C   -0.059254
    13  H    0.432363
    14  H    0.459823
    15  C   -0.065596
    16  H    0.432727
    17  H    0.427714
    18  C    0.144160
    19  H    0.206978
    20  H    0.192933
    21  C    0.147855
    22  C   -0.205152
    23  C   -0.220542
    24  C   -0.177812
    25  C   -0.177283
    26  C   -0.194762
    27  H    0.196148
    28  H    0.188203
    29  H    0.189048
    30  H    0.188163
    31  H    0.192128
    32  C   -0.236140
    33  C   -0.228084
    34  C   -0.182155
    35  C   -0.183016
    36  C   -0.190725
    37  H    0.202745
    38  H    0.184574
    39  H    0.183825
    40  H    0.184758
    41  H    0.183969
    42  C   -0.237650
    43  C   -0.218442
    44  C   -0.183037
    45  C   -0.182243
    46  C   -0.183034
    47  H    0.195589
    48  H    0.187365
    49  H    0.185974
    50  H    0.186552
    51  H    0.178185
    52  Ru  -0.708253
    53  P    0.601892
    54  P    0.631798
    55  C   -0.136237
    56  C   -0.139925
    57  C   -0.130527
    58  C   -0.129745
    59  C   -0.153017
    60  C   -0.121859
    61  C   -0.070814
    62  C   -0.222948
    63  C   -0.069510
    64  C   -0.227801
    65  C    0.100569
    66  C   -0.217255
    67  H    0.184235
    68  C    0.105842
    69  C   -0.215355
    70  H    0.184152
    71  C    0.094175
    72  C   -0.198914
    73  H    0.185772
    74  C    0.081942
    75  C   -0.211543
    76  H    0.187732
    77  C   -0.228082
    78  C   -0.186048
    79  H    0.179964
    80  C   -0.227542
    81  C   -0.186447
    82  H    0.183393
    83  C   -0.187951
    84  H    0.182694
    85  H    0.180234
    86  C   -0.188625
    87  H    0.185878
    88  H    0.183584
    89  H    0.182743
    90  H    0.185687
    91  C   -0.199921
    92  C   -0.198740
    93  C   -0.175664
    94  H    0.184630
    95  C   -0.185618
    96  H    0.230442
    97  C   -0.183308
    98  H    0.185455
    99  H    0.187937
   100  H    0.187425
   101  C   -0.196254
   102  C   -0.175550
   103  C   -0.162948
   104  H    0.182485
   105  C   -0.190320
   106  H    0.219018
   107  C   -0.185272
   108  H    0.179914
   109  H    0.182458
   110  H    0.183339
   111  C   -0.199725
   112  C   -0.243148
   113  C   -0.171190
   114  H    0.188997
   115  C   -0.173297
   116  H    0.228175
   117  C   -0.180427
   118  H    0.189445
   119  H    0.192257
   120  H    0.191433
   121  C   -0.188990
   122  C   -0.179086
   123  C   -0.168175
   124  H    0.184796
   125  C   -0.174742
   126  H    0.221426
   127  C   -0.175154
   128  H    0.180918
   129  H    0.179178
   130  H    0.181316
 Sum of Mulliken charges =   0.00000
 Mulliken charges with hydrogens summed into heavy atoms:
               1
     2  C    0.019250
     3  C    0.369298
     4  O   -0.543966
     5  C    0.068696
    10  N    0.039909
    11  N    0.029525
    12  C    0.147724
    15  C    0.127337
    18  C    0.144160
    21  C    0.147855
    22  C   -0.009004
    23  C   -0.028414
    24  C    0.011237
    25  C    0.010881
    26  C   -0.006558
    32  C   -0.033395
    33  C   -0.044115
    34  C    0.001671
    35  C    0.001741
    36  C   -0.006151
    42  C   -0.042061
    43  C   -0.040257
    44  C    0.002938
    45  C    0.004309
    46  C    0.004330
    52  Ru  -0.902598
    53  P    0.601892
    54  P    0.631798
    55  C   -0.136237
    56  C   -0.139925
    57  C   -0.130527
    58  C   -0.129745
    59  C   -0.153017
    60  C   -0.121859
    61  C   -0.070814
    62  C   -0.038713
    63  C   -0.069510
    64  C   -0.043649
    65  C    0.100569
    66  C   -0.031483
    68  C    0.105842
    69  C   -0.027622
    71  C    0.094175
    72  C   -0.018950
    74  C    0.081942
    75  C   -0.028150
    77  C   -0.045389
    78  C   -0.005814
    80  C   -0.041664
    81  C   -0.002863
    83  C   -0.005208
    86  C   -0.002937
    91  C   -0.015291
    92  C    0.031702
    93  C    0.009791
    95  C    0.002320
    97  C    0.004117
   101  C   -0.013768
   102  C    0.043468
   103  C    0.016966
   105  C   -0.007862
   107  C   -0.001933
   111  C   -0.010728
   112  C   -0.014973
   113  C    0.018255
   115  C    0.018960
   117  C    0.011006
   121  C   -0.004194
   122  C    0.042340
   123  C    0.012743
   125  C    0.004436
   127  C    0.006162
 Electronic spatial extent (au):  <R**2>=          48634.5025
 Charge=              0.0000 electrons
 Dipole moment (field-independent basis, Debye):
    X=             -0.4119    Y=             -3.4838    Z=              2.4666  Tot=              4.2884
 Quadrupole moment (field-independent basis, Debye-Ang):
   XX=           -393.4158   YY=           -409.4986   ZZ=           -407.7643
   XY=              8.7902   XZ=            -12.2237   YZ=             -0.4646
 Traceless Quadrupole moment (field-independent basis, Debye-Ang):
   XX=             10.1438   YY=             -5.9391   ZZ=             -4.2047
   XY=              8.7902   XZ=            -12.2237   YZ=             -0.4646
 Octapole moment (field-independent basis, Debye-Ang**2):
  XXX=           -144.6675  YYY=            -27.7488  ZZZ=             80.7494  XYY=             -8.4191
  XXY=            -17.8489  XXZ=             42.5770  XZZ=             15.5627  YZZ=             11.5573
  YYZ=            -11.9505  XYZ=             65.8220
 Hexadecapole moment (field-independent basis, Debye-Ang**3):
 XXXX=         -34010.4719 YYYY=         -16118.9228 ZZZZ=         -12183.2234 XXXY=            151.0874
 XXXZ=             87.6635 YYYX=             81.9223 YYYZ=           -192.7253 ZZZX=           -270.7272
 ZZZY=            -46.6801 XXYY=          -8092.8375 XXZZ=          -7519.5258 YYZZ=          -4800.7845
 XXYZ=            243.2753 YYXZ=           -114.7012 ZZXY=              1.8696
 N-N= 1.338295927769D+04 E-N=-3.493980920574D+04  KE= 3.431487009256D+03
 1\1\GINC-N217\FTS\RwB97XD\GenECP\C66H58N2O1P2Ru1\VMI38398\20-Dec-2018\
 0\\#wb97xd/genecp opt=(calcfc,ts,maxcyc=1000) scrf=(pcm,solvent=2-prop
 anol)\\step 3 (attempt 1) cycle 1\\0,1\H,-1.4227806894,-0.5072557492,-
 5.014675484\C,-0.9387736822,-0.4648544082,-4.0297688925\C,-2.046674723
 8,-0.2948828041,-2.9996863288\O,-2.6972954633,0.772801411,-2.983596285
 3\C,-2.7446445668,-1.572299238,-2.5738840936\H,-0.3745233236,-1.388529
 4694,-3.8952706064\H,-0.2545980289,0.3859320158,-4.0167900016\H,-0.879
 8416538,-0.2022107318,-1.6245408934\H,-0.6644517353,0.6986527573,1.677
 2027545\N,-2.2252800385,1.7119568776,-0.2791760716\N,-2.4171902397,-0.
 8733904352,0.5513975603\C,-3.3855079291,1.3919802293,0.5758343663\H,-1
 .9652408152,2.6865565053,-0.1460225124\H,-2.4860619641,1.5996857306,-1
 .2676572936\C,-3.6736840295,-0.1068167049,0.395366269\H,-2.4841722161,
 -1.7240906653,-0.006497118\H,-2.3210087406,-1.1829198823,1.5152315664\
 C,-4.6213032273,2.2143010093,0.2695016534\H,-3.0727972917,1.5730017612
 ,1.6088271975\H,-3.987685029,-0.2411564408,-0.6412108575\C,-4.77108382
 81,-0.6031680638,1.3102330598\C,-2.0624602085,-2.7144874892,-2.1413808
 551\C,-4.1383976793,-1.6127879432,-2.6568658014\C,-4.1555283246,-3.884
 3200343,-1.8413163393\C,-4.8410319131,-2.7609588877,-2.29491427\C,-2.7
 620488473,-3.857802556,-1.7680141832\H,-0.9818869164,-2.691440983,-2.0
 474847386\H,-2.2188349496,-4.727408027,-1.410058923\H,-4.7002500751,-4
 .7766340197,-1.5480664372\H,-5.9248813015,-2.7744510369,-2.3637495159\
 H,-4.6673399103,-0.7278820416,-2.9977206626\C,-5.1366658029,2.27047470
 62,-1.0304045812\C,-5.289680515,2.886150749,1.2932211206\C,-6.96171823
 64,3.6569213569,-0.2660868911\C,-6.4545530794,3.6039299256,1.029613992
 8\C,-6.29865179,2.9892728473,-1.295383149\H,-4.6282725514,1.7471518223
 ,-1.8383110396\H,-6.6910533627,3.0259946324,-2.3075705643\H,-7.8704956
 812,4.2139045644,-0.474169697\H,-6.9647698514,4.1200615723,1.837635514
 2\H,-4.899930767,2.8386223303,2.3071798073\C,-4.5728165126,-0.65661272
 32,2.6936757121\C,-5.9985783714,-1.0103374267,0.7879970656\C,-6.800605
 1859,-1.530123044,3.0044554816\C,-7.0094768207,-1.4711081507,1.6288758
 166\C,-5.5786361799,-1.1199393493,3.5360928692\H,-3.6275242225,-0.3307
 956577,3.1241367489\H,-5.4095264093,-1.1593914777,4.6080684338\H,-7.58
 58369845,-1.8919138399,3.661415653\H,-7.9591719313,-1.786653193,1.2071
 693887\H,-6.1634012115,-0.9623182177,-0.2848792857\Ru,-0.6329947893,0.
 2846881998,0.0723804629\P,1.0895792134,1.7119124896,-0.3100184908\P,0.
 7833446327,-1.3792158442,0.6481255627\C,0.6599805406,3.142106789,-1.41
 75012459\C,1.9402022033,2.6020822444,1.0717110771\C,2.5277194174,0.917
 1526748,-1.175793958\C,-0.1384368904,-2.5657799976,1.7329935456\C,1.58
 55448188,-2.5185510564,-0.5608453284\C,2.2981860379,-0.8778605085,1.60
 42310912\C,3.3596188751,0.0193002728,-0.5207914705\C,2.6566291957,1.09
 18501277,-2.580104637\C,3.3240768033,-0.1912704636,0.9664793932\C,2.38
 10968924,-1.1093709047,3.0024589651\C,4.325731207,-0.7353052028,-1.272
 3803562\C,3.5877133849,0.4016449561,-3.3049274697\H,2.0059914891,1.794
 7955354,-3.0892524279\C,4.4362916808,0.3016912244,1.7317972008\C,3.425
 5237602,-0.6362110667,3.7477355259\H,1.6094812638,-1.6860289176,3.4969
 513975\C,4.4469246337,-0.5305678518,-2.6734580457\C,5.1671603404,-1.70
 96450322,-0.6678716508\H,3.6776206892,0.5616799186,-4.3763286317\C,4.4
 741289632,0.0921095682,3.1369868056\C,5.5158884231,1.0144275189,1.1377
 025961\H,3.4657853913,-0.8258550519,4.8172847062\C,5.4089608834,-1.266
 5380666,-3.4133890468\C,6.0861066041,-2.4106959057,-1.4057264022\H,5.0
 66784998,-1.9102459219,0.3925182682\C,5.5616607626,0.5989553713,3.8979
 999491\C,6.5576859782,1.4870003167,1.8932466076\H,5.5077381669,1.19630
 04777,0.069191883\C,6.2169764913,-2.1849383784,-2.7949297747\H,5.48926
 49203,-1.0900252174,-4.4830310388\H,6.7123927096,-3.1534990511,-0.9205
 428793\C,6.5842507326,1.2810257183,3.2924555744\H,5.5675691992,0.43056
 11962,4.9718543969\H,7.3671789437,2.0301919278,1.4147640485\H,6.949690
 3296,-2.7453974195,-3.3678549199\H,7.4132323941,1.6635143354,3.8801807
 352\C,1.1709963936,4.438430854,-1.2845474946\C,-0.2653038687,2.9001368
 831,-2.4408407126\C,0.7801334313,5.4522129575,-2.1576793269\H,1.874611
 6032,4.6746573863,-0.4946819841\C,-0.6530525626,3.908727992,-3.3177696
 112\H,-0.701276512,1.9128291338,-2.5411981261\C,-0.128663372,5.1917157
 391,-3.1800175601\H,1.1900182281,6.4504462755,-2.0336162804\H,-1.37366
 17239,3.6876555607,-4.0996970029\H,-0.4313158026,5.9837927244,-3.85861
 60434\C,3.1951272009,3.1935945689,0.8845644848\C,1.3193421641,2.736992
 9086,2.3149208581\C,3.8142880418,3.8984455984,1.911235958\H,3.70424197
 6,3.0883839637,-0.0698653175\C,1.9395731927,3.4360945272,3.3489874205\
 H,0.3547328365,2.2633480512,2.4706943546\C,3.1885263484,4.0189647435,3
 .1501665958\H,4.7944087721,4.3363355089,1.7489432397\H,1.4461660257,3.
 5213757649,4.3130995477\H,3.6750528583,4.5587784883,3.9573743379\C,-0.
 5025564531,-3.8388970749,1.2836566298\C,-0.7162945275,-2.0986310263,2.
 9256658252\C,-1.3970600539,-4.627412195,2.0087233722\H,-0.0977014761,-
 4.2241406219,0.3538874903\C,-1.595138399,-2.889547518,3.6585313413\H,-
 0.5109796049,-1.0846532335,3.2567621626\C,-1.9415385124,-4.1603234673,
 3.1999921628\H,-1.6690391684,-5.6090220367,1.6317901917\H,-2.026489942
 5,-2.5029983138,4.5771571361\H,-2.6373831567,-4.7743352866,3.763401965
 9\C,2.3753251865,-3.5973809068,-0.1468688122\C,1.4666353466,-2.2528451
 522,-1.9220065182\C,3.0078823292,-4.4070171192,-1.0835020724\H,2.50081
 51298,-3.8032470231,0.9135643726\C,2.1055095941,-3.0554074546,-2.86374
 49255\H,0.8948802054,-1.3812351836,-2.2230468599\C,2.873907873,-4.1370
 744163,-2.4455757499\H,3.6201702028,-5.2405074595,-0.7518788404\H,2.01
 58817645,-2.8236380185,-3.9213675526\H,3.3815289486,-4.7613342394,-3.1
 749873336\\Version=ES64L-G09RevD.01\State=1-A\HF=-3511.5160178\RMSD=6.
 372e-09\RMSF=2.001e-06\Dipole=-0.1634212,-1.3720122,0.9682411\Quadrupo
 le=7.5612691,-4.4210949,-3.1401742,6.543356,-9.0705612,-0.3381206\PG=C
 01 [X(C66H58N2O1P2Ru1)]\\@


 IT IS A PROFOUNDLY ERRONEOUS TRUISM ... THAT WE SHOULD CULTIVATE
 THE HABIT OF THINKING OF WHAT WE ARE DOING.
 THE PRECISE OPPOSITE IS THE CASE.
 CIVILIZATION ADVANCES BY EXTENDING THE NUMBER OF IMPORTANT OPERATIONS
 WHICH WE CAN PERFORM WITHOUT THINKING ABOUT THEM.

                                    -- ALFRED NORTH WHITEHEAD
 Job cpu time:       4 days 19 hours 40 minutes 37.9 seconds.
 File lengths (MBytes):  RWF=  19987 Int=      0 D2E=      0 Chk=    131 Scr=      1
 Normal termination of Gaussian 09 at Thu Dec 20 10:32:07 2018.
